       N       E                     dE             d eps       ncg     rms          rms(c)
DAV:   1     0.119823949759E+04    0.11982E+04   -0.59654E+04 92032   0.117E+03
DAV:   2    -0.130489917784E+03   -0.13287E+04   -0.12401E+04101472   0.319E+02
DAV:   3    -0.266755918534E+03   -0.13627E+03   -0.13273E+03127696   0.121E+02
DAV:   4    -0.275047760251E+03   -0.82918E+01   -0.82407E+01151536   0.370E+01
DAV:   5    -0.275144735415E+03   -0.96975E-01   -0.96763E-01145360   0.499E+00    0.430E+01
DAV:   6    -0.236880477964E+03    0.38264E+02   -0.16089E+02144616   0.394E+01    0.135E+01
DAV:   7    -0.241206035955E+03   -0.43256E+01   -0.12811E+01140496   0.120E+01    0.834E+00
DAV:   8    -0.242781575495E+03   -0.15755E+01   -0.13785E+00137504   0.430E+00    0.318E+00
DAV:   9    -0.243045582215E+03   -0.26401E+00   -0.49728E-01117280   0.213E+00    0.746E-01
DAV:  10    -0.243042591873E+03    0.29903E-02   -0.89284E-02147560   0.109E+00    0.442E-01
DAV:  11    -0.243044909099E+03   -0.23172E-02   -0.20330E-02146680   0.521E-01    0.268E-01
DAV:  12    -0.243045708672E+03   -0.79957E-03   -0.20831E-03121592   0.159E-01    0.138E-01
DAV:  13    -0.243046246602E+03   -0.53793E-03   -0.22200E-03133624   0.144E-01    0.439E-02
DAV:  14    -0.243046300601E+03   -0.53999E-04   -0.25503E-04121128   0.727E-02    0.225E-02
DAV:  15    -0.243046301036E+03   -0.43544E-06   -0.68766E-05136432   0.270E-02    0.926E-03
DAV:  16    -0.243046303407E+03   -0.23702E-05   -0.87863E-06130216   0.112E-02    0.583E-03
DAV:  17    -0.243046304199E+03   -0.79209E-06   -0.23227E-06111376   0.447E-03    0.302E-03
DAV:  18    -0.243046304308E+03   -0.10885E-06   -0.50832E-07111704   0.285E-03    0.845E-04
DAV:  19    -0.243046304326E+03   -0.18653E-07   -0.93682E-08 68536   0.137E-03
   1 F= -.24304630E+03 E0= -.24304630E+03  d E =-.243046E+03  mag=     0.0000
       N       E                     dE             d eps       ncg     rms          rms(c)
DAV:   1    -0.243048914809E+03   -0.26105E-02   -0.12394E-01134288   0.160E+00    0.308E-01
DAV:   2    -0.243046900378E+03    0.20144E-02   -0.80096E-03134752   0.363E-01    0.128E-01
DAV:   3    -0.243046562669E+03    0.33771E-03   -0.13876E-03139280   0.123E-01    0.451E-02
DAV:   4    -0.243046516283E+03    0.46386E-04   -0.16510E-04145848   0.532E-02    0.199E-02
DAV:   5    -0.243046502357E+03    0.13926E-04   -0.22085E-05124992   0.172E-02    0.643E-03
DAV:   6    -0.243046500420E+03    0.19372E-05   -0.48511E-06147480   0.806E-03    0.234E-03
DAV:   7    -0.243046499883E+03    0.53647E-06   -0.32290E-07 95080   0.248E-03    0.100E-03
DAV:   8    -0.243046499618E+03    0.26489E-06   -0.93892E-08 59984   0.161E-03    0.352E-04
DAV:   9    -0.243046499564E+03    0.53964E-07   -0.38796E-08 55952   0.110E-03
   2 F= -.24304650E+03 E0= -.24304650E+03  d E =-.195238E-03  mag=    -0.0000
       N       E                     dE             d eps       ncg     rms          rms(c)
DAV:   1    -0.243047256435E+03   -0.75682E-03   -0.24008E-02134280   0.706E-01    0.136E-01
DAV:   2    -0.243046872508E+03    0.38393E-03   -0.15520E-03134728   0.159E-01    0.561E-02
DAV:   3    -0.243046812977E+03    0.59531E-04   -0.26796E-04139416   0.538E-02    0.199E-02
DAV:   4    -0.243046805479E+03    0.74984E-05   -0.32040E-05145784   0.235E-02    0.876E-03
DAV:   5    -0.243046804968E+03    0.51033E-06   -0.42596E-06124944   0.755E-03    0.283E-03
DAV:   6    -0.243046805488E+03   -0.51934E-06   -0.92661E-07134912   0.355E-03    0.103E-03
DAV:   7    -0.243046805688E+03   -0.20089E-06   -0.64570E-08 59592   0.124E-03    0.437E-04
DAV:   8    -0.243046805804E+03   -0.11597E-06   -0.22723E-08 55848   0.102E-03    0.152E-04
DAV:   9    -0.243046805825E+03   -0.20919E-07   -0.13559E-08 55760   0.713E-04
   3 F= -.24304681E+03 E0= -.24304681E+03  d E =-.501499E-03  mag=     0.0000
       N       E                     dE             d eps       ncg     rms          rms(c)
DAV:   1    -0.243046805943E+03   -0.13845E-06   -0.16999E-06134304   0.608E-03    0.111E-03
DAV:   2    -0.243046805890E+03    0.52655E-07   -0.82368E-08 59040   0.137E-03
   4 F= -.24304681E+03 E0= -.24304681E+03  d E =-.501564E-03  mag=    -0.0000
       N       E                     dE             d eps       ncg     rms          rms(c)
DAV:   1    -0.243046842980E+03   -0.37037E-04   -0.29392E-03104160   0.281E-01    0.270E-02
DAV:   2    -0.243046846688E+03   -0.37083E-05   -0.21179E-04120288   0.521E-02    0.155E-02
DAV:   3    -0.243046841686E+03    0.50018E-05   -0.13087E-05138800   0.139E-02    0.428E-03
DAV:   4    -0.243046841429E+03    0.25784E-06   -0.16711E-06143688   0.487E-03    0.132E-03
DAV:   5    -0.243046841463E+03   -0.34805E-07   -0.12766E-07 66776   0.165E-03
   5 F= -.24304684E+03 E0= -.24304684E+03  d E =-.355731E-04  mag=     0.0000
       N       E                     dE             d eps       ncg     rms          rms(c)
DAV:   1    -0.243046846700E+03   -0.52716E-05   -0.84500E-04103960   0.151E-01    0.144E-02
DAV:   2    -0.243046847846E+03   -0.11463E-05   -0.60622E-05121408   0.279E-02    0.825E-03
DAV:   3    -0.243046846511E+03    0.13352E-05   -0.37122E-06138960   0.748E-03    0.228E-03
DAV:   4    -0.243046846466E+03    0.45638E-07   -0.44492E-07108600   0.263E-03
   6 F= -.24304685E+03 E0= -.24304685E+03  d E =-.405755E-04  mag=    -0.0000
       N       E                     dE             d eps       ncg     rms          rms(c)
DAV:   1    -0.243046851760E+03   -0.52482E-05   -0.22812E-03102560   0.179E-01    0.119E-02
DAV:   2    -0.243046855519E+03   -0.37592E-05   -0.78558E-05136616   0.359E-02    0.729E-03
DAV:   3    -0.243046853831E+03    0.16873E-05   -0.35362E-06146672   0.840E-03    0.287E-03
DAV:   4    -0.243046853521E+03    0.31048E-06   -0.85043E-07129048   0.393E-03    0.972E-04
DAV:   5    -0.243046853441E+03    0.80231E-07   -0.11463E-07 65888   0.155E-03
   7 F= -.24304685E+03 E0= -.24304685E+03  d E =-.697501E-05  mag=     0.0000
       N       E                     dE             d eps       ncg     rms          rms(c)
DAV:   1    -0.243046853807E+03   -0.28643E-06   -0.10967E-04105488   0.394E-02    0.266E-03
DAV:   2    -0.243046854063E+03   -0.25609E-06   -0.39007E-06136048   0.786E-03    0.164E-03
DAV:   3    -0.243046854046E+03    0.17646E-07   -0.12940E-07 75832   0.184E-03
   8 F= -.24304685E+03 E0= -.24304685E+03  d E =-.758011E-05  mag=    -0.0000
       N       E                     dE             d eps       ncg     rms          rms(c)
DAV:   1    -0.243046854051E+03    0.12647E-07   -0.13309E-06 99464   0.455E-03    0.375E-04
DAV:   2    -0.243046854067E+03   -0.15717E-07   -0.46563E-08 56144   0.107E-03
   9 F= -.24304685E+03 E0= -.24304685E+03  d E =-.760083E-05  mag=    -0.0000
       N       E                     dE             d eps       ncg     rms          rms(c)
DAV:   1    -0.243046854096E+03   -0.45474E-07   -0.37690E-07 83152   0.255E-03    0.121E-04
DAV:   2    -0.243046854092E+03    0.39990E-08   -0.15949E-08 55456   0.580E-04
  10 F= -.24304685E+03 E0= -.24304685E+03  d E =-.762659E-05  mag=    -0.0000
       N       E                     dE             d eps       ncg     rms          rms(c)
DAV:   1    -0.243046854103E+03   -0.71987E-08   -0.16126E-04110152   0.541E-02    0.296E-03
DAV:   2    -0.243046854656E+03   -0.55248E-06   -0.79370E-06127944   0.103E-02    0.174E-03
DAV:   3    -0.243046854640E+03    0.16353E-07   -0.32639E-07 99656   0.260E-03
  11 F= -.24304685E+03 E0= -.24304685E+03  d E =-.547322E-06  mag=    -0.0000
