 running on   24 total cores
 distrk:  each k-point on   24 cores,    1 groups
 distr:  one band on    3 cores,    8 groups
 using from now: INCAR     
 vasp.5.4.1 24Jun15 (build Nov 02 2017 18:40:54) complex                        
  
 POSCAR found type information on POSCAR  B  N  Al
 POSCAR found :  3 types and      64 ions
 scaLAPACK will be used

 ----------------------------------------------------------------------------- 
|                                                                             |
|  ADVICE TO THIS USER RUNNING 'VASP/VAMP'   (HEAR YOUR MASTER'S VOICE ...):  |
|                                                                             |
|      You have a (more or less) 'large supercell' and for larger cells       |
|      it might be more efficient to use real space projection operators      |
|      So try LREAL= Auto  in the INCAR   file.                               |
|      Mind: If you want to do a very accurate calculations keep the          |
|      reciprocal projection scheme          (i.e. LREAL=.FALSE.)             |
|                                                                             |
 ----------------------------------------------------------------------------- 

 LDA part: xc-table for Pade appr. of Perdew
 POSCAR, INCAR and KPOINTS ok, starting setup
 WARNING: small aliasing (wrap around) errors must be expected
 FFT: planning ...
 WAVECAR not read
 entering main loop
       N       E                     dE             d eps       ncg     rms          rms(c)
DAV:   1     0.115155569570E+04    0.11516E+04   -0.12568E+05 27200   0.116E+03
DAV:   2    -0.456799831636E+03   -0.16084E+04   -0.15073E+04 33392   0.282E+02
DAV:   3    -0.565476400139E+03   -0.10868E+03   -0.10755E+03 33496   0.714E+01
DAV:   4    -0.567215796838E+03   -0.17394E+01   -0.17347E+01 33976   0.949E+00
DAV:   5    -0.567252770348E+03   -0.36974E-01   -0.36939E-01 33568   0.132E+00    0.572E+01
DAV:   6    -0.382285773261E+03    0.18497E+03   -0.30182E+02 30824   0.366E+01    0.276E+01
DAV:   7    -0.380360614593E+03    0.19252E+01   -0.29333E+01 32352   0.131E+01    0.212E+01
DAV:   8    -0.368437909181E+03    0.11923E+02   -0.11368E+01 31832   0.860E+00    0.207E+01
DAV:   9    -0.360342399850E+03    0.80955E+01   -0.21335E+00 31864   0.437E+00    0.166E+01
DAV:  10    -0.385297121237E+03   -0.24955E+02   -0.92813E+00 31000   0.613E+00    0.132E+01
DAV:  11    -0.436656091488E+03   -0.51359E+02   -0.23057E+01 29288   0.994E+00    0.128E+01
DAV:  12    -0.489664031384E+03   -0.53008E+02   -0.43533E+01 31848   0.132E+01    0.640E+00
DAV:  13    -0.518362173071E+03   -0.28698E+02   -0.39981E+01 32688   0.997E+00    0.468E+00
DAV:  14    -0.523002954404E+03   -0.46408E+01   -0.84716E+00 31880   0.542E+00    0.253E+00
DAV:  15    -0.523216387359E+03   -0.21343E+00   -0.63982E-01 31064   0.184E+00    0.124E+00
DAV:  16    -0.523256705046E+03   -0.40318E-01   -0.10623E-01 31304   0.835E-01    0.708E-01
DAV:  17    -0.523285614674E+03   -0.28910E-01   -0.32313E-02 31256   0.467E-01    0.568E-01
DAV:  18    -0.523288017077E+03   -0.24024E-02   -0.80346E-03 30992   0.216E-01    0.415E-01
DAV:  19    -0.523290775112E+03   -0.27580E-02   -0.11212E-02 32736   0.267E-01    0.145E-01
DAV:  20    -0.523291460887E+03   -0.68578E-03   -0.21595E-03 31144   0.109E-01    0.805E-02
DAV:  21    -0.523291808200E+03   -0.34731E-03   -0.45071E-04 31784   0.506E-02    0.599E-02
DAV:  22    -0.523292020267E+03   -0.21207E-03   -0.26686E-04 31072   0.361E-02    0.254E-02
DAV:  23    -0.523292069221E+03   -0.48954E-04   -0.72186E-05 33072   0.197E-02    0.223E-02
DAV:  24    -0.523292109435E+03   -0.40214E-04   -0.70343E-05 31232   0.199E-02    0.229E-02
DAV:  25    -0.523292147462E+03   -0.38027E-04   -0.10445E-04 32344   0.237E-02    0.203E-02
DAV:  26    -0.523292174166E+03   -0.26704E-04   -0.80703E-05 32464   0.200E-02    0.133E-02
DAV:  27    -0.523292191940E+03   -0.17773E-04   -0.90571E-05 31864   0.214E-02    0.631E-03
DAV:  28    -0.523292198855E+03   -0.69155E-05   -0.46100E-05 32592   0.152E-02    0.414E-03
DAV:  29    -0.523292200859E+03   -0.20040E-05   -0.20725E-05 32152   0.105E-02    0.236E-03
DAV:  30    -0.523292201237E+03   -0.37795E-06   -0.44896E-06 31424   0.474E-03
   1 F= -.52973970E+03 E0= -.52973970E+03  d E =-.529740E+03  mag=     0.0002
 curvature:   0.00 expect dE= 0.000E+00 dE for cont linesearch  0.000E+00
 trial: gam= 0.00000 g(F)=  0.175E+02 g(S)=  0.351E+01 ort = 0.000E+00 (trialstep = 0.100E+01)
 search vector abs. value=  0.210E+02
 bond charge predicted
       N       E                     dE             d eps       ncg     rms          rms(c)
DAV:   1    -0.534431627872E+03   -0.11139E+02   -0.85800E+02 27200   0.654E+01    0.108E+01
DAV:   2    -0.533313826861E+03    0.11178E+01   -0.21667E+01 33272   0.113E+01    0.710E+00
DAV:   3    -0.532242987182E+03    0.10708E+01   -0.38557E+00 32400   0.502E+00    0.254E+00
DAV:   4    -0.532111853148E+03    0.13113E+00   -0.70628E-01 32408   0.218E+00    0.122E+00
DAV:   5    -0.532087598080E+03    0.24255E-01   -0.17843E-01 33248   0.911E-01    0.341E-01
DAV:   6    -0.532087693109E+03   -0.95029E-04   -0.18140E-02 31576   0.342E-01    0.197E-01
DAV:   7    -0.532088224410E+03   -0.53130E-03   -0.38393E-03 32768   0.139E-01    0.899E-02
DAV:   8    -0.532088267068E+03   -0.42658E-04   -0.58498E-04 32080   0.609E-02    0.380E-02
DAV:   9    -0.532088299632E+03   -0.32564E-04   -0.23413E-04 32736   0.333E-02    0.152E-02
DAV:  10    -0.532088307814E+03   -0.81821E-05   -0.31529E-05 31928   0.138E-02    0.757E-03
DAV:  11    -0.532088307898E+03   -0.84430E-07   -0.42943E-06 27840   0.473E-03
   2 F= -.53857866E+03 E0= -.53857866E+03  d E =-.883896E+01  mag=     0.0000
 trial-energy change:   -8.838964  1 .order   -8.440263  -20.986695    4.106169
 step:   0.8486(harm=  0.8364)  dis= 0.08194  next Energy=  -538.888097 (dE=-0.915E+01)
 bond charge predicted
       N       E                     dE             d eps       ncg     rms          rms(c)
DAV:   1    -0.532465363502E+03   -0.37706E+00   -0.20180E+01 27368   0.102E+01    0.159E+00
DAV:   2    -0.532436937378E+03    0.28426E-01   -0.45953E-01 33640   0.161E+00    0.104E+00
DAV:   3    -0.532408814989E+03    0.28122E-01   -0.50289E-02 32808   0.587E-01    0.402E-01
DAV:   4    -0.532404228233E+03    0.45868E-02   -0.13690E-02 32400   0.286E-01    0.141E-01
DAV:   5    -0.532403898888E+03    0.32934E-03   -0.24050E-03 33936   0.122E-01    0.532E-02
DAV:   6    -0.532403935328E+03   -0.36440E-04   -0.42938E-04 31912   0.508E-02    0.249E-02
DAV:   7    -0.532403942734E+03   -0.74062E-05   -0.53713E-05 32456   0.177E-02    0.734E-03
DAV:   8    -0.532403944351E+03   -0.16169E-05   -0.61596E-06 31432   0.641E-03    0.425E-03
DAV:   9    -0.532403945315E+03   -0.96408E-06   -0.11972E-06 21648   0.289E-03
   3 F= -.53890612E+03 E0= -.53890612E+03  d E =-.916642E+01  mag=     0.0000
 curvature:  -0.42 expect dE=-0.402E+01 dE for cont linesearch -0.198E-02
 trial: gam= 0.47538 g(F)=  0.859E+01 g(S)=  0.107E+01 ort =-0.316E+00 (trialstep = 0.970E+00)
 search vector abs. value=  0.141E+02
 bond charge predicted
       N       E                     dE             d eps       ncg     rms          rms(c)
DAV:   1    -0.536684758815E+03   -0.42808E+01   -0.77593E+02 27216   0.617E+01    0.804E+00
DAV:   2    -0.536012174415E+03    0.67258E+00   -0.14967E+01 33216   0.879E+00    0.424E+00
DAV:   3    -0.535572635159E+03    0.43954E+00   -0.10805E+00 33696   0.257E+00    0.185E+00
DAV:   4    -0.535482975957E+03    0.89659E-01   -0.20645E-01 33584   0.118E+00    0.682E-01
DAV:   5    -0.535470276185E+03    0.12700E-01   -0.55683E-02 33568   0.561E-01    0.233E-01
DAV:   6    -0.535470400335E+03   -0.12415E-03   -0.84757E-03 33224   0.220E-01    0.135E-01
DAV:   7    -0.535470443676E+03   -0.43341E-04   -0.13037E-03 34072   0.942E-02    0.511E-02
DAV:   8    -0.535470471304E+03   -0.27628E-04   -0.37876E-04 33880   0.451E-02    0.236E-02
DAV:   9    -0.535470481588E+03   -0.10284E-04   -0.43445E-05 32280   0.167E-02    0.904E-03
DAV:  10    -0.535470482591E+03   -0.10028E-05   -0.12192E-05 33696   0.798E-03    0.365E-03
DAV:  11    -0.535470482597E+03   -0.62282E-08   -0.23055E-06 22712   0.356E-03
   4 F= -.54217403E+03 E0= -.54217403E+03  d E =-.326791E+01  mag=     0.0000
 trial-energy change:   -3.267912  1 .order   -3.454963   -9.222644    2.312718
 step:   0.7593(harm=  0.7753)  dis= 0.06622  next Energy=  -542.426902 (dE=-0.352E+01)
 bond charge predicted
       N       E                     dE             d eps       ncg     rms          rms(c)
DAV:   1    -0.535835970180E+03   -0.36549E+00   -0.37494E+01 27440   0.136E+01    0.164E+00
DAV:   2    -0.535789467595E+03    0.46503E-01   -0.55063E-01 33600   0.173E+00    0.930E-01
DAV:   3    -0.535762941107E+03    0.26526E-01   -0.75906E-02 33376   0.666E-01    0.358E-01
DAV:   4    -0.535760380376E+03    0.25607E-02   -0.11454E-02 33832   0.284E-01    0.171E-01
DAV:   5    -0.535759431257E+03    0.94912E-03   -0.35809E-03 32704   0.139E-01    0.481E-02
DAV:   6    -0.535759440696E+03   -0.94382E-05   -0.42510E-04 32824   0.498E-02    0.295E-02
DAV:   7    -0.535759444371E+03   -0.36757E-05   -0.89560E-05 33712   0.241E-02    0.123E-02
DAV:   8    -0.535759442506E+03    0.18652E-05   -0.16355E-05 33480   0.119E-02    0.625E-03
DAV:   9    -0.535759443369E+03   -0.86322E-06   -0.71789E-06 32264   0.627E-03
   5 F= -.54242313E+03 E0= -.54242313E+03  d E =-.351700E+01  mag=     0.0000
 curvature:  -0.57 expect dE=-0.498E+00 dE for cont linesearch -0.211E-04
 trial: gam= 0.05930 g(F)=  0.833E+00 g(S)=  0.386E-01 ort = 0.228E-01 (trialstep = 0.928E+00)
 search vector abs. value=  0.924E+00
 bond charge predicted
       N       E                     dE             d eps       ncg     rms          rms(c)
DAV:   1    -0.536083629832E+03   -0.32419E+00   -0.77953E+01 27200   0.199E+01    0.218E+00
DAV:   2    -0.536045553216E+03    0.38077E-01   -0.14130E+00 34208   0.265E+00    0.135E+00
DAV:   3    -0.535998239727E+03    0.47313E-01   -0.10128E-01 33448   0.808E-01    0.581E-01
DAV:   4    -0.535993197724E+03    0.50420E-02   -0.30818E-02 33696   0.384E-01    0.174E-01
DAV:   5    -0.535993123389E+03    0.74335E-04   -0.34967E-03 33640   0.135E-01    0.746E-02
DAV:   6    -0.535993111478E+03    0.11911E-04   -0.31732E-04 32048   0.456E-02    0.404E-02
DAV:   7    -0.535993132664E+03   -0.21186E-04   -0.11310E-04 31752   0.242E-02    0.994E-03
DAV:   8    -0.535993135432E+03   -0.27680E-05   -0.89957E-06 32944   0.797E-03    0.469E-03
DAV:   9    -0.535993137202E+03   -0.17700E-05   -0.40258E-06 30248   0.442E-03    0.354E-03
DAV:  10    -0.535993137215E+03   -0.12431E-07   -0.42094E-07 17424   0.200E-03
   6 F= -.54269148E+03 E0= -.54269148E+03  d E =-.268350E+00  mag=     0.0000
 trial-energy change:   -0.268350  1 .order   -0.268497   -0.809822    0.272827
 step:   0.6939(harm=  0.6939)  dis= 0.02044  next Energy=  -542.726000 (dE=-0.303E+00)
 bond charge predicted
       N       E                     dE             d eps       ncg     rms          rms(c)
DAV:   1    -0.536041812234E+03   -0.48675E-01   -0.49835E+00 27248   0.501E+00    0.533E-01
DAV:   2    -0.536039365482E+03    0.24468E-02   -0.85819E-02 34376   0.657E-01    0.344E-01
DAV:   3    -0.536036150146E+03    0.32153E-02   -0.69682E-03 33000   0.211E-01    0.140E-01
DAV:   4    -0.536035860581E+03    0.28956E-03   -0.18355E-03 33848   0.941E-02    0.469E-02
DAV:   5    -0.536035842953E+03    0.17629E-04   -0.23521E-04 33040   0.350E-02    0.182E-02
DAV:   6    -0.536035841563E+03    0.13895E-05   -0.28408E-05 31720   0.131E-02    0.959E-03
DAV:   7    -0.536035842169E+03   -0.60584E-06   -0.68059E-06 31064   0.585E-03
   7 F= -.54272565E+03 E0= -.54272565E+03  d E =-.302521E+00  mag=     0.0000
 curvature:  -0.37 expect dE=-0.154E+00 dE for cont linesearch -0.734E-06
 trial: gam= 0.49190 g(F)=  0.400E+00 g(S)=  0.202E-01 ort = 0.136E-02 (trialstep = 0.881E+00)
 search vector abs. value=  0.645E+00
 bond charge predicted
       N       E                     dE             d eps       ncg     rms          rms(c)
DAV:   1    -0.536189142044E+03   -0.15330E+00   -0.61889E+01 27328   0.176E+01    0.194E+00
DAV:   2    -0.536144037617E+03    0.45104E-01   -0.89997E-01 33888   0.216E+00    0.105E+00
DAV:   3    -0.536114594049E+03    0.29444E-01   -0.70488E-02 34096   0.655E-01    0.414E-01
DAV:   4    -0.536112030438E+03    0.25636E-02   -0.14963E-02 33248   0.278E-01    0.143E-01
DAV:   5    -0.536111803889E+03    0.22655E-03   -0.20747E-03 33032   0.107E-01    0.547E-02
DAV:   6    -0.536111812532E+03   -0.86428E-05   -0.27744E-04 31776   0.393E-02    0.272E-02
DAV:   7    -0.536111820160E+03   -0.76281E-05   -0.39836E-05 31880   0.147E-02    0.673E-03
DAV:   8    -0.536111822195E+03   -0.20349E-05   -0.50390E-06 31608   0.526E-03    0.315E-03
DAV:   9    -0.536111822952E+03   -0.75708E-06   -0.66337E-07 19720   0.229E-03
   8 F= -.54284708E+03 E0= -.54284708E+03  d E =-.121431E+00  mag=     0.0000
 trial-energy change:   -0.121431  1 .order   -0.123261   -0.370916    0.124395
 step:   0.6559(harm=  0.6597)  dis= 0.01472  next Energy=  -542.862992 (dE=-0.137E+00)
 bond charge predicted
       N       E                     dE             d eps       ncg     rms          rms(c)
DAV:   1    -0.536144268060E+03   -0.32446E-01   -0.40406E+00 27328   0.449E+00    0.474E-01
DAV:   2    -0.536141587691E+03    0.26804E-02   -0.55391E-02 33936   0.539E-01    0.271E-01
DAV:   3    -0.536139574131E+03    0.20136E-02   -0.52637E-03 33920   0.174E-01    0.100E-01
DAV:   4    -0.536139440761E+03    0.13337E-03   -0.90852E-04 33320   0.686E-02    0.411E-02
DAV:   5    -0.536139408871E+03    0.31890E-04   -0.17092E-04 32784   0.303E-02    0.134E-02
DAV:   6    -0.536139408244E+03    0.62695E-06   -0.24646E-05 31552   0.117E-02    0.659E-03
DAV:   7    -0.536139407935E+03    0.30929E-06   -0.22442E-06 25152   0.358E-03
   9 F= -.54286295E+03 E0= -.54286295E+03  d E =-.137301E+00  mag=     0.0000
 curvature:  -0.51 expect dE=-0.799E-01 dE for cont linesearch -0.523E-06
 trial: gam= 0.37583 g(F)=  0.139E+00 g(S)=  0.194E-01 ort = 0.817E-03 (trialstep = 0.836E+00)
 search vector abs. value=  0.250E+00
 bond charge predicted
       N       E                     dE             d eps       ncg     rms          rms(c)
DAV:   1    -0.536237780823E+03   -0.98373E-01   -0.25944E+01 27200   0.112E+01    0.120E+00
DAV:   2    -0.536217231252E+03    0.20550E-01   -0.34167E-01 32880   0.130E+00    0.694E-01
DAV:   3    -0.536199886551E+03    0.17345E-01   -0.26381E-02 33600   0.396E-01    0.250E-01
DAV:   4    -0.536198222421E+03    0.16641E-02   -0.63011E-03 33440   0.171E-01    0.743E-02
DAV:   5    -0.536198135931E+03    0.86490E-04   -0.49868E-04 33480   0.530E-02    0.358E-02
DAV:   6    -0.536198129260E+03    0.66712E-05   -0.38894E-05 32248   0.163E-02    0.159E-02
DAV:   7    -0.536198132191E+03   -0.29311E-05   -0.17976E-05 32688   0.957E-03    0.380E-03
DAV:   8    -0.536198133009E+03   -0.81786E-06   -0.14250E-06 21400   0.317E-03
  10 F= -.54294714E+03 E0= -.54294714E+03  d E =-.841889E-01  mag=     0.0000
 trial-energy change:   -0.084189  1 .order   -0.084337   -0.132418   -0.036257
 step:   1.1511(harm=  1.1511)  dis= 0.03303  next Energy=  -542.954121 (dE=-0.912E-01)
 bond charge predicted
       N       E                     dE             d eps       ncg     rms          rms(c)
DAV:   1    -0.536200975906E+03   -0.28437E-02   -0.36994E+00 27200   0.424E+00    0.449E-01
DAV:   2    -0.536198093951E+03    0.28820E-02   -0.48141E-02 32944   0.488E-01    0.264E-01
DAV:   3    -0.536195543639E+03    0.25503E-02   -0.40208E-03 33568   0.153E-01    0.924E-02
DAV:   4    -0.536195324770E+03    0.21887E-03   -0.86183E-04 33672   0.633E-02    0.293E-02
DAV:   5    -0.536195310253E+03    0.14518E-04   -0.77438E-05 32984   0.207E-02    0.136E-02
DAV:   6    -0.536195309491E+03    0.76231E-06   -0.71461E-06 31832   0.675E-03
  11 F= -.54295385E+03 E0= -.54295385E+03  d E =-.909021E-01  mag=     0.0000
 curvature:  -0.91 expect dE=-0.160E+00 dE for cont linesearch -0.149E-05
 trial: gam= 1.12325 g(F)=  0.160E+00 g(S)=  0.161E-01 ort =-0.641E-03 (trialstep = 0.459E+00)
 search vector abs. value=  0.490E+00
 bond charge predicted
       N       E                     dE             d eps       ncg     rms          rms(c)
DAV:   1    -0.536244483545E+03   -0.49173E-01   -0.15293E+01 27200   0.860E+00    0.106E+00
DAV:   2    -0.536224004538E+03    0.20479E-01   -0.21162E-01 32976   0.103E+00    0.550E-01
DAV:   3    -0.536213872787E+03    0.10132E-01   -0.20687E-02 33104   0.338E-01    0.197E-01
DAV:   4    -0.536212912976E+03    0.95981E-03   -0.34502E-03 33872   0.132E-01    0.709E-02
DAV:   5    -0.536212761038E+03    0.15194E-03   -0.57398E-04 32464   0.558E-02    0.269E-02
DAV:   6    -0.536212761978E+03   -0.94023E-06   -0.65509E-05 32008   0.196E-02    0.123E-02
DAV:   7    -0.536212762677E+03   -0.69866E-06   -0.80488E-06 33448   0.686E-03
  12 F= -.54300177E+03 E0= -.54300177E+03  d E =-.479198E-01  mag=     0.0000
 trial-energy change:   -0.047920  1 .order   -0.048061   -0.080391   -0.015731
 step:   0.5719(harm=  0.5701)  dis= 0.02440  next Energy=  -543.003713 (dE=-0.499E-01)
 bond charge predicted
       N       E                     dE             d eps       ncg     rms          rms(c)
DAV:   1    -0.536209092250E+03    0.36697E-02   -0.93701E-01 27576   0.213E+00    0.259E-01
DAV:   2    -0.536207847059E+03    0.12452E-02   -0.12664E-02 33008   0.254E-01    0.137E-01
DAV:   3    -0.536207209784E+03    0.63727E-03   -0.13603E-03 33048   0.854E-02    0.478E-02
DAV:   4    -0.536207156399E+03    0.53385E-04   -0.20824E-04 34008   0.325E-02    0.185E-02
DAV:   5    -0.536207145685E+03    0.10713E-04   -0.39018E-05 32272   0.145E-02    0.676E-03
DAV:   6    -0.536207146071E+03   -0.38570E-06   -0.43017E-06 29528   0.504E-03
  13 F= -.54300367E+03 E0= -.54300367E+03  d E =-.498149E-01  mag=     0.0000
 curvature:  -0.80 expect dE=-0.314E-01 dE for cont linesearch -0.794E-06
 trial: gam= 0.20752 g(F)=  0.266E-01 g(S)=  0.128E-01 ort =-0.699E-03 (trialstep = 0.481E+00)
 search vector abs. value=  0.602E-01
 bond charge predicted
       N       E                     dE             d eps       ncg     rms          rms(c)
DAV:   1    -0.536203626889E+03    0.35188E-02   -0.13754E+00 27480   0.266E+00    0.587E-01
DAV:   2    -0.536196074479E+03    0.75524E-02   -0.35002E-02 33008   0.433E-01    0.248E-01
DAV:   3    -0.536194639640E+03    0.14348E-02   -0.55725E-03 30896   0.163E-01    0.862E-02
DAV:   4    -0.536194480879E+03    0.15876E-03   -0.76802E-04 33640   0.644E-02    0.417E-02
DAV:   5    -0.536194436344E+03    0.44535E-04   -0.17591E-04 32184   0.303E-02    0.949E-03
DAV:   6    -0.536194438142E+03   -0.17983E-05   -0.18697E-05 32200   0.983E-03    0.663E-03
DAV:   7    -0.536194438838E+03   -0.69572E-06   -0.13247E-06 19952   0.308E-03
  14 F= -.54301114E+03 E0= -.54301114E+03  d E =-.747727E-02  mag=     0.0000
 trial-energy change:   -0.007477  1 .order   -0.007465   -0.018883    0.003953
 step:   0.3979(harm=  0.3979)  dis= 0.00320  next Energy=  -543.011473 (dE=-0.781E-02)
 bond charge predicted
       N       E                     dE             d eps       ncg     rms          rms(c)
DAV:   1    -0.536198555793E+03   -0.41177E-02   -0.41102E-02 27744   0.459E-01    0.101E-01
DAV:   2    -0.536198328031E+03    0.22776E-03   -0.10328E-03 33056   0.745E-02    0.428E-02
DAV:   3    -0.536198284591E+03    0.43439E-04   -0.16764E-04 30888   0.282E-02    0.149E-02
DAV:   4    -0.536198279420E+03    0.51712E-05   -0.23046E-05 33616   0.112E-02    0.731E-03
DAV:   5    -0.536198277419E+03    0.20014E-05   -0.51532E-06 30752   0.522E-03    0.174E-03
DAV:   6    -0.536198277277E+03    0.14148E-06   -0.50498E-07 16200   0.170E-03
  15 F= -.54301148E+03 E0= -.54301148E+03  d E =-.781866E-02  mag=     0.0000
 curvature:  -0.31 expect dE=-0.343E-02 dE for cont linesearch -0.193E-06
 trial: gam= 0.27676 g(F)=  0.821E-02 g(S)=  0.304E-02 ort = 0.195E-03 (trialstep = 0.465E+00)
 search vector abs. value=  0.160E-01
 bond charge predicted
       N       E                     dE             d eps       ncg     rms          rms(c)
DAV:   1    -0.536195279341E+03    0.29981E-02   -0.26744E-01 27328   0.115E+00    0.325E-01
DAV:   2    -0.536192269003E+03    0.30103E-02   -0.70877E-03 32960   0.195E-01    0.128E-01
DAV:   3    -0.536191799323E+03    0.46968E-03   -0.17467E-03 31000   0.847E-02    0.465E-02
DAV:   4    -0.536191748605E+03    0.50718E-04   -0.26632E-04 33976   0.365E-02    0.250E-02
DAV:   5    -0.536191729831E+03    0.18774E-04   -0.70881E-05 32200   0.177E-02    0.411E-03
DAV:   6    -0.536191730950E+03   -0.11188E-05   -0.56812E-06 31176   0.529E-03    0.379E-03
DAV:   7    -0.536191731160E+03   -0.21037E-06   -0.41333E-07 16672   0.165E-03
  16 F= -.54301586E+03 E0= -.54301586E+03  d E =-.438056E-02  mag=     0.0000
 trial-energy change:   -0.004381  1 .order   -0.004396   -0.005253   -0.003538
 step:   1.6482(harm=  1.4229)  dis= 0.00615  next Energy=  -543.020119 (dE=-0.863E-02)
 bond charge predicted
       N       E                     dE             d eps       ncg     rms          rms(c)
DAV:   1    -0.536190626459E+03    0.11045E-02   -0.17408E+00 27200   0.292E+00    0.830E-01
DAV:   2    -0.536171027871E+03    0.19599E-01   -0.46361E-02 32960   0.498E-01    0.327E-01
DAV:   3    -0.536167956291E+03    0.30716E-02   -0.11371E-02 31000   0.216E-01    0.118E-01
DAV:   4    -0.536167619327E+03    0.33696E-03   -0.17234E-03 34000   0.931E-02    0.634E-02
DAV:   5    -0.536167493488E+03    0.12584E-03   -0.45640E-04 32192   0.450E-02    0.106E-02
DAV:   6    -0.536167498582E+03   -0.50935E-05   -0.36883E-05 31768   0.135E-02    0.978E-03
DAV:   7    -0.536167498612E+03   -0.30275E-07   -0.30110E-06 26504   0.429E-03
  17 F= -.54301942E+03 E0= -.54301942E+03  d E =-.793773E-02  mag=     0.0000
 curvature:  -0.95 expect dE=-0.229E-01 dE for cont linesearch -0.172E-03
 trial: gam= 2.29683 g(F)=  0.135E-01 g(S)=  0.107E-01 ort =-0.170E-02 (trialstep = 0.111E+00)
 search vector abs. value=  0.101E+00
 bond charge predicted
       N       E                     dE             d eps       ncg     rms          rms(c)
DAV:   1    -0.536166046913E+03    0.14517E-02   -0.97058E-02 27424   0.674E-01    0.165E-01
DAV:   2    -0.536165192154E+03    0.85476E-03   -0.20248E-03 32928   0.104E-01    0.803E-02
DAV:   3    -0.536164947088E+03    0.24507E-03   -0.60801E-04 31920   0.503E-02    0.287E-02
DAV:   4    -0.536164927247E+03    0.19841E-04   -0.80273E-05 34000   0.204E-02    0.122E-02
DAV:   5    -0.536164920876E+03    0.63713E-05   -0.20452E-05 32136   0.960E-03    0.308E-03
DAV:   6    -0.536164921195E+03   -0.31901E-06   -0.14262E-06 20056   0.284E-03
  18 F= -.54302150E+03 E0= -.54302150E+03  d E =-.207395E-02  mag=     0.0000
 ZBRENT: can't locate minimum, use default step
 trial-energy change:   -0.002074  1 .order   -0.002074   -0.002256   -0.001892
 step:   0.4453(harm=  0.6903)  dis= 0.00550  next Energy=  -543.026414 (dE=-0.699E-02)
 bond charge predicted
       N       E                     dE             d eps       ncg     rms          rms(c)
DAV:   1    -0.536164942797E+03   -0.21922E-04   -0.87222E-01 27200   0.202E+00    0.494E-01
DAV:   2    -0.536157319199E+03    0.76236E-02   -0.18282E-02 32960   0.311E-01    0.241E-01
DAV:   3    -0.536155139956E+03    0.21792E-02   -0.53594E-03 31888   0.150E-01    0.856E-02
DAV:   4    -0.536154957967E+03    0.18199E-03   -0.70312E-04 34000   0.605E-02    0.356E-02
DAV:   5    -0.536154904914E+03    0.53053E-04   -0.17739E-04 32160   0.283E-02    0.897E-03
DAV:   6    -0.536154907214E+03   -0.22994E-05   -0.14348E-05 31864   0.848E-03    0.608E-03
DAV:   7    -0.536154906983E+03    0.23079E-06   -0.15027E-06 20376   0.304E-03
  19 F= -.54302541E+03 E0= -.54302541E+03  d E =-.598858E-02  mag=    -0.0000
 curvature:  -1.41 expect dE=-0.150E-01 dE for cont linesearch -0.617E-03
 ZBRENT: increasing intervall
 opt :   1.1133  next Energy=  -543.022932 (dE=-0.351E-02)
 bond charge predicted
       N       E                     dE             d eps       ncg     rms          rms(c)
DAV:   1    -0.536164929797E+03   -0.10023E-01   -0.34973E+00 27200   0.405E+00    0.995E-01
DAV:   2    -0.536134236932E+03    0.30693E-01   -0.74210E-02 32944   0.626E-01    0.483E-01
DAV:   3    -0.536125557494E+03    0.86794E-02   -0.21261E-02 31904   0.299E-01    0.172E-01
DAV:   4    -0.536124814794E+03    0.74270E-03   -0.27908E-03 33968   0.121E-01    0.703E-02
DAV:   5    -0.536124610905E+03    0.20389E-03   -0.68933E-04 32160   0.559E-02    0.180E-02
DAV:   6    -0.536124618358E+03   -0.74527E-05   -0.55713E-05 31920   0.168E-02    0.121E-02
DAV:   7    -0.536124617236E+03    0.11214E-05   -0.65231E-06 33424   0.599E-03    0.432E-03
DAV:   8    -0.536124617809E+03   -0.57259E-06   -0.19084E-06 19712   0.315E-03
  20 F= -.54302286E+03 E0= -.54302286E+03  d E =-.343406E-02  mag=    -0.0000
 curvature:   5.65 expect dE= 0.141E+00 dE for cont linesearch  0.109E-01
 ZBRENT: bracketing found
 ZBRENT: interpolating
 opt :   0.6611  next Energy=  -543.026127 (dE=-0.670E-02)
 bond charge predicted
       N       E                     dE             d eps       ncg     rms          rms(c)
DAV:   1    -0.536165016057E+03   -0.40399E-01   -0.16050E+00 27200   0.274E+00    0.668E-01
DAV:   2    -0.536151075526E+03    0.13941E-01   -0.33047E-02 32976   0.421E-01    0.327E-01
DAV:   3    -0.536147059035E+03    0.40165E-02   -0.10096E-02 31904   0.205E-01    0.116E-01
DAV:   4    -0.536146733958E+03    0.32508E-03   -0.13258E-03 33984   0.830E-02    0.499E-02
DAV:   5    -0.536146629768E+03    0.10419E-03   -0.34664E-04 32144   0.393E-02    0.120E-02
DAV:   6    -0.536146632213E+03   -0.24448E-05   -0.27948E-05 31840   0.118E-02    0.839E-03
DAV:   7    -0.536146631307E+03    0.90566E-06   -0.30424E-06 27800   0.416E-03
  21 F= -.54302610E+03 E0= -.54302610E+03  d E =-.668230E-02  mag=     0.0000
 curvature:  -0.37 expect dE=-0.400E-02 dE for cont linesearch -0.175E-06
 trial: gam= 0.14472 g(F)=  0.100E-01 g(S)=  0.737E-03 ort = 0.217E-03 (trialstep = 0.221E+00)
 search vector abs. value=  0.129E-01
 bond charge predicted
       N       E                     dE             d eps       ncg     rms          rms(c)
DAV:   1    -0.536147758827E+03   -0.11266E-02   -0.50503E-02 27296   0.505E-01    0.681E-02
DAV:   2    -0.536147663388E+03    0.95439E-04   -0.61378E-04 34016   0.558E-02    0.412E-02
DAV:   3    -0.536147601858E+03    0.61530E-04   -0.10492E-04 32992   0.234E-02    0.109E-02
DAV:   4    -0.536147599926E+03    0.19315E-05   -0.12453E-05 33840   0.817E-03    0.404E-03
DAV:   5    -0.536147599829E+03    0.97687E-07   -0.11262E-06 18392   0.269E-03
  22 F= -.54302825E+03 E0= -.54302825E+03  d E =-.214622E-02  mag=    -0.0000
 ZBRENT: can't locate minimum, use default step
 trial-energy change:   -0.002146  1 .order   -0.002157   -0.002384   -0.001931
 step:   0.8851(harm=  1.1644)  dis= 0.00469  next Energy=  -543.032376 (dE=-0.627E-02)
 bond charge predicted
       N       E                     dE             d eps       ncg     rms          rms(c)
DAV:   1    -0.536149291853E+03   -0.16919E-02   -0.45543E-01 27200   0.151E+00    0.206E-01
DAV:   2    -0.536148407949E+03    0.88390E-03   -0.55650E-03 34016   0.168E-01    0.124E-01
DAV:   3    -0.536147859099E+03    0.54885E-03   -0.96531E-04 32952   0.707E-02    0.335E-02
DAV:   4    -0.536147841823E+03    0.17275E-04   -0.11350E-04 33976   0.247E-02    0.121E-02
DAV:   5    -0.536147840962E+03    0.86171E-06   -0.11872E-05 32144   0.796E-03    0.517E-03
DAV:   6    -0.536147841157E+03   -0.19537E-06   -0.97518E-07 18984   0.308E-03
  23 F= -.54303201E+03 E0= -.54303201E+03  d E =-.590121E-02  mag=     0.0000
 curvature:  -0.64 expect dE=-0.329E-02 dE for cont linesearch -0.357E-03
 ZBRENT: extrapolating
 opt :   1.1809  next Energy=  -543.032403 (dE=-0.630E-02)
 bond charge predicted
       N       E                     dE             d eps       ncg     rms          rms(c)
DAV:   1    -0.536146961072E+03    0.87989E-03   -0.90524E-02 27296   0.675E-01    0.919E-02
DAV:   2    -0.536146782763E+03    0.17831E-03   -0.11096E-03 34016   0.750E-02    0.554E-02
DAV:   3    -0.536146671397E+03    0.11137E-03   -0.19364E-04 32912   0.317E-02    0.149E-02
DAV:   4    -0.536146667936E+03    0.34619E-05   -0.22827E-05 33960   0.110E-02    0.546E-03
DAV:   5    -0.536146667770E+03    0.16511E-06   -0.20116E-06 22472   0.353E-03
  24 F= -.54303239E+03 E0= -.54303239E+03  d E =-.628448E-02  mag=     0.0000
 curvature:  -0.71 expect dE=-0.578E-02 dE for cont linesearch -0.849E-08
 trial: gam= 0.77382 g(F)=  0.548E-02 g(S)=  0.267E-02 ort =-0.124E-04 (trialstep = 0.336E+00)
 search vector abs. value=  0.159E-01
 bond charge predicted
       N       E                     dE             d eps       ncg     rms          rms(c)
DAV:   1    -0.536144173618E+03    0.24943E-02   -0.15996E-01 27232   0.882E-01    0.154E-01
DAV:   2    -0.536143710066E+03    0.46355E-03   -0.27449E-03 33408   0.121E-01    0.671E-02
DAV:   3    -0.536143617661E+03    0.92405E-04   -0.42546E-04 32112   0.441E-02    0.244E-02
DAV:   4    -0.536143610362E+03    0.72990E-05   -0.64379E-05 33736   0.180E-02    0.128E-02
DAV:   5    -0.536143608684E+03    0.16774E-05   -0.14515E-05 32096   0.846E-03    0.289E-03
DAV:   6    -0.536143609092E+03   -0.40801E-06   -0.15896E-06 19592   0.295E-03
  25 F= -.54303454E+03 E0= -.54303454E+03  d E =-.215175E-02  mag=     0.0000
 trial-energy change:   -0.002152  1 .order   -0.002145   -0.002737   -0.001553
 step:   0.7480(harm=  0.7777)  dis= 0.00412  next Energy=  -543.035502 (dE=-0.311E-02)
 bond charge predicted
       N       E                     dE             d eps       ncg     rms          rms(c)
DAV:   1    -0.536139099100E+03    0.45096E-02   -0.23952E-01 27232   0.108E+00    0.187E-01
DAV:   2    -0.536138411478E+03    0.68762E-03   -0.41017E-03 33440   0.148E-01    0.821E-02
DAV:   3    -0.536138271608E+03    0.13987E-03   -0.63691E-04 32112   0.540E-02    0.297E-02
DAV:   4    -0.536138260303E+03    0.11305E-04   -0.96321E-05 33728   0.220E-02    0.156E-02
DAV:   5    -0.536138257375E+03    0.29282E-05   -0.21610E-05 32096   0.103E-02    0.343E-03
DAV:   6    -0.536138257966E+03   -0.59153E-06   -0.25563E-06 23632   0.368E-03
  26 F= -.54303557E+03 E0= -.54303557E+03  d E =-.318004E-02  mag=     0.0000
 curvature:  -0.75 expect dE=-0.365E-02 dE for cont linesearch -0.555E-05
 trial: gam= 0.55421 g(F)=  0.464E-02 g(S)=  0.199E-03 ort = 0.342E-03 (trialstep = 0.419E+00)
 search vector abs. value=  0.101E-01
 bond charge predicted
       N       E                     dE             d eps       ncg     rms          rms(c)
DAV:   1    -0.536137292601E+03    0.96477E-03   -0.27781E-01 27328   0.116E+00    0.108E-01
DAV:   2    -0.536137167277E+03    0.12532E-03   -0.35171E-03 32944   0.139E-01    0.620E-02
DAV:   3    -0.536137053734E+03    0.11354E-03   -0.28096E-04 34048   0.407E-02    0.224E-02
DAV:   4    -0.536137047807E+03    0.59270E-05   -0.55983E-05 32944   0.160E-02    0.859E-03
DAV:   5    -0.536137046557E+03    0.12502E-05   -0.69782E-06 32848   0.634E-03    0.292E-03
DAV:   6    -0.536137046703E+03   -0.14556E-06   -0.13159E-06 19096   0.282E-03
  27 F= -.54303735E+03 E0= -.54303735E+03  d E =-.178165E-02  mag=     0.0000
 trial-energy change:   -0.001782  1 .order   -0.001783   -0.002107   -0.001458
 step:   1.3605(harm=  1.3605)  dis= 0.00560  next Energy=  -543.038991 (dE=-0.342E-02)
 bond charge predicted
       N       E                     dE             d eps       ncg     rms          rms(c)
DAV:   1    -0.536133258922E+03    0.37876E-02   -0.14053E+00 27328   0.260E+00    0.245E-01
DAV:   2    -0.536132584000E+03    0.67492E-03   -0.17836E-02 32912   0.313E-01    0.140E-01
DAV:   3    -0.536132012983E+03    0.57102E-03   -0.14222E-03 34048   0.916E-02    0.506E-02
DAV:   4    -0.536131981765E+03    0.31218E-04   -0.28542E-04 32976   0.362E-02    0.191E-02
DAV:   5    -0.536131975044E+03    0.67212E-05   -0.34727E-05 32864   0.142E-02    0.652E-03
DAV:   6    -0.536131975126E+03   -0.82293E-07   -0.76275E-06 31568   0.653E-03
  28 F= -.54303899E+03 E0= -.54303899E+03  d E =-.341895E-02  mag=     0.0000
 curvature:  -1.36 expect dE=-0.977E-02 dE for cont linesearch -0.179E-07
 trial: gam= 1.56020 g(F)=  0.652E-02 g(S)=  0.641E-03 ort = 0.115E-04 (trialstep = 0.193E+00)
 search vector abs. value=  0.318E-01
 bond charge predicted
       N       E                     dE             d eps       ncg     rms          rms(c)
DAV:   1    -0.536131979184E+03   -0.41405E-05   -0.17355E-01 27360   0.910E-01    0.756E-02
DAV:   2    -0.536131986972E+03   -0.77876E-05   -0.22929E-03 32280   0.110E-01    0.496E-02
DAV:   3    -0.536131914185E+03    0.72787E-04   -0.12083E-04 33920   0.287E-02    0.185E-02
DAV:   4    -0.536131909678E+03    0.45070E-05   -0.41333E-05 33608   0.135E-02    0.532E-03
DAV:   5    -0.536131909702E+03   -0.24231E-07   -0.18320E-06 21256   0.372E-03
  29 F= -.54304020E+03 E0= -.54304020E+03  d E =-.121506E-02  mag=    -0.0000
 ZBRENT: can't locate minimum, use default step
 trial-energy change:   -0.001215  1 .order   -0.001220   -0.001385   -0.001055
 step:   0.7715(harm=  0.8087)  dis= 0.00443  next Energy=  -543.041891 (dE=-0.290E-02)
 bond charge predicted
       N       E                     dE             d eps       ncg     rms          rms(c)
DAV:   1    -0.536130479806E+03    0.14299E-02   -0.15624E+00 27328   0.273E+00    0.229E-01
DAV:   2    -0.536130527404E+03   -0.47598E-04   -0.20706E-02 32272   0.329E-01    0.149E-01
DAV:   3    -0.536129875673E+03    0.65173E-03   -0.10865E-03 33960   0.860E-02    0.560E-02
DAV:   4    -0.536129833766E+03    0.41907E-04   -0.37314E-04 33584   0.406E-02    0.158E-02
DAV:   5    -0.536129833205E+03    0.56140E-06   -0.18314E-05 33392   0.111E-02    0.687E-03
DAV:   6    -0.536129833056E+03    0.14862E-06   -0.19341E-06 20960   0.409E-03
  30 F= -.54304193E+03 E0= -.54304193E+03  d E =-.294605E-02  mag=     0.0000
 curvature:  -1.78 expect dE=-0.834E-02 dE for cont linesearch -0.134E-04
 trial: gam= 0.54710 g(F)=  0.445E-02 g(S)=  0.233E-03 ort = 0.489E-03 (trialstep = 0.309E+00)
 search vector abs. value=  0.147E-01
 bond charge predicted
       N       E                     dE             d eps       ncg     rms          rms(c)
DAV:   1    -0.536129334001E+03    0.49920E-03   -0.14402E-01 27360   0.813E-01    0.775E-02
DAV:   2    -0.536129400396E+03   -0.66394E-04   -0.22048E-03 32680   0.108E-01    0.483E-02
DAV:   3    -0.536129359772E+03    0.40623E-04   -0.10478E-04 32808   0.269E-02    0.185E-02
DAV:   4    -0.536129359865E+03   -0.92476E-07   -0.30170E-05 33968   0.117E-02    0.641E-03
DAV:   5    -0.536129360758E+03   -0.89351E-06   -0.21447E-06 23264   0.385E-03
  31 F= -.54304329E+03 E0= -.54304329E+03  d E =-.135426E-02  mag=     0.0000
 trial-energy change:   -0.001354  1 .order   -0.001348   -0.001527   -0.001169
 step:   1.0539(harm=  1.3168)  dis= 0.00499  next Energy=  -543.044786 (dE=-0.285E-02)
 bond charge predicted
       N       E                     dE             d eps       ncg     rms          rms(c)
DAV:   1    -0.536126649558E+03    0.27103E-02   -0.83918E-01 27328   0.196E+00    0.188E-01
DAV:   2    -0.536127035558E+03   -0.38600E-03   -0.12807E-02 32680   0.260E-01    0.116E-01
DAV:   3    -0.536126803077E+03    0.23248E-03   -0.60427E-04 32808   0.647E-02    0.447E-02
DAV:   4    -0.536126802759E+03    0.31801E-06   -0.17438E-04 33960   0.283E-02    0.153E-02
DAV:   5    -0.536126806921E+03   -0.41621E-05   -0.13869E-05 32552   0.912E-03    0.648E-03
DAV:   6    -0.536126806514E+03    0.40714E-06   -0.21637E-06 23568   0.387E-03
  32 F= -.54304511E+03 E0= -.54304511E+03  d E =-.317399E-02  mag=     0.0000
 curvature:  -1.83 expect dE=-0.949E-02 dE for cont linesearch -0.137E-03
 ZBRENT: extrapolating
 opt :   1.3408  next Energy=  -543.045259 (dE=-0.332E-02)
 bond charge predicted
       N       E                     dE             d eps       ncg     rms          rms(c)
DAV:   1    -0.536125268818E+03    0.15381E-02   -0.12447E-01 27360   0.756E-01    0.720E-02
DAV:   2    -0.536125327183E+03   -0.58365E-04   -0.19077E-03 32664   0.100E-01    0.449E-02
DAV:   3    -0.536125292301E+03    0.34882E-04   -0.89879E-05 32784   0.249E-02    0.172E-02
DAV:   4    -0.536125292403E+03   -0.10263E-06   -0.26051E-05 33984   0.109E-02    0.597E-03
DAV:   5    -0.536125293196E+03   -0.79246E-06   -0.18176E-06 21912   0.358E-03
  33 F= -.54304526E+03 E0= -.54304526E+03  d E =-.332987E-02  mag=    -0.0000
 curvature:  -2.01 expect dE=-0.167E-01 dE for cont linesearch -0.219E-07
 trial: gam= 1.89167 g(F)=  0.831E-02 g(S)=  0.315E-04 ort =-0.127E-04 (trialstep = 0.124E+00)
 search vector abs. value=  0.610E-01
 bond charge predicted
       N       E                     dE             d eps       ncg     rms          rms(c)
DAV:   1    -0.536124738100E+03    0.55430E-03   -0.10523E-01 27360   0.685E-01    0.652E-02
DAV:   2    -0.536124774441E+03   -0.36341E-04   -0.14736E-03 32552   0.866E-02    0.396E-02
DAV:   3    -0.536124745900E+03    0.28540E-04   -0.82010E-05 32960   0.223E-02    0.142E-02
DAV:   4    -0.536124746293E+03   -0.39238E-06   -0.20435E-05 33872   0.895E-03    0.521E-03
DAV:   5    -0.536124746759E+03   -0.46660E-06   -0.94031E-07 18648   0.256E-03
  34 F= -.54304622E+03 E0= -.54304622E+03  d E =-.958604E-03  mag=     0.0000
 ZBRENT: can't locate minimum, use default step
 trial-energy change:   -0.000959  1 .order   -0.000955   -0.001034   -0.000875
 step:   0.4974(harm=  0.8091)  dis= 0.00488  next Energy=  -543.048628 (dE=-0.336E-02)
 bond charge predicted
       N       E                     dE             d eps       ncg     rms          rms(c)
DAV:   1    -0.536122135712E+03    0.26106E-02   -0.94610E-01 27328   0.206E+00    0.197E-01
DAV:   2    -0.536122432372E+03   -0.29666E-03   -0.13288E-02 32560   0.260E-01    0.119E-01
DAV:   3    -0.536122173130E+03    0.25924E-03   -0.74526E-04 32944   0.673E-02    0.425E-02
DAV:   4    -0.536122176534E+03   -0.34049E-05   -0.18718E-04 33896   0.271E-02    0.154E-02
DAV:   5    -0.536122180413E+03   -0.38782E-05   -0.94384E-06 32344   0.757E-03    0.648E-03
DAV:   6    -0.536122179962E+03    0.45033E-06   -0.27947E-06 25664   0.394E-03
  35 F= -.54304814E+03 E0= -.54304814E+03  d E =-.287472E-02  mag=    -0.0000
 curvature:  -2.35 expect dE=-0.717E-02 dE for cont linesearch -0.388E-03
 ZBRENT: increasing intervall
 opt :   1.2436  next Energy=  -543.047622 (dE=-0.236E-02)
 bond charge predicted
       N       E                     dE             d eps       ncg     rms          rms(c)
DAV:   1    -0.536112745114E+03    0.94353E-02   -0.37827E+00 27328   0.411E+00    0.396E-01
DAV:   2    -0.536113869749E+03   -0.11246E-02   -0.53555E-02 32544   0.522E-01    0.238E-01
DAV:   3    -0.536112836495E+03    0.10333E-02   -0.29580E-03 32944   0.134E-01    0.859E-02
DAV:   4    -0.536112849242E+03   -0.12747E-04   -0.75849E-04 33960   0.545E-02    0.306E-02
DAV:   5    -0.536112864440E+03   -0.15198E-04   -0.36991E-05 32304   0.149E-02    0.128E-02
DAV:   6    -0.536112862318E+03    0.21226E-05   -0.11832E-05 30832   0.789E-03    0.389E-03
DAV:   7    -0.536112862480E+03   -0.16253E-06   -0.15356E-06 20576   0.276E-03
  36 F= -.54304764E+03 E0= -.54304764E+03  d E =-.237958E-02  mag=    -0.0000
 curvature:   3.13 expect dE= 0.356E-01 dE for cont linesearch  0.103E-02
 ZBRENT: bracketing found
 ZBRENT: interpolating
 opt :   0.8070  next Energy=  -543.048629 (dE=-0.337E-02)
 bond charge predicted
       N       E                     dE             d eps       ncg     rms          rms(c)
DAV:   1    -0.536118932278E+03   -0.60700E-02   -0.12954E+00 27328   0.240E+00    0.228E-01
DAV:   2    -0.536119342376E+03   -0.41010E-03   -0.17985E-02 32560   0.303E-01    0.140E-01
DAV:   3    -0.536118982459E+03    0.35992E-03   -0.10591E-03 32880   0.799E-02    0.490E-02
DAV:   4    -0.536118987636E+03   -0.51772E-05   -0.25281E-04 33768   0.314E-02    0.184E-02
DAV:   5    -0.536118992859E+03   -0.52229E-05   -0.13980E-05 32432   0.917E-03    0.756E-03
DAV:   6    -0.536118991655E+03    0.12044E-05   -0.45458E-06 28880   0.488E-03    0.242E-03
DAV:   7    -0.536118991637E+03    0.17273E-07   -0.53243E-07 16872   0.168E-03
  37 F= -.54304863E+03 E0= -.54304863E+03  d E =-.336872E-02  mag=     0.0000
 curvature:  -1.50 expect dE=-0.623E-02 dE for cont linesearch -0.444E-07
 trial: gam= 0.43595 g(F)=  0.403E-02 g(S)=  0.139E-03 ort = 0.426E-04 (trialstep = 0.261E+00)
 search vector abs. value=  0.158E-01
 bond charge predicted
       N       E                     dE             d eps       ncg     rms          rms(c)
DAV:   1    -0.536117943663E+03    0.10480E-02   -0.17230E-01 27744   0.880E-01    0.840E-02
DAV:   2    -0.536117918445E+03    0.25218E-04   -0.22969E-03 32896   0.111E-01    0.500E-02
DAV:   3    -0.536117856640E+03    0.61805E-04   -0.17545E-04 33680   0.325E-02    0.173E-02
DAV:   4    -0.536117855813E+03    0.82659E-06   -0.38913E-05 33352   0.128E-02    0.650E-03
DAV:   5    -0.536117856008E+03   -0.19488E-06   -0.35710E-06 29968   0.448E-03
  38 F= -.54304953E+03 E0= -.54304953E+03  d E =-.893230E-03  mag=    -0.0000
 trial-energy change:   -0.000893  1 .order   -0.000889   -0.001092   -0.000685
 step:   0.6381(harm=  0.7010)  dis= 0.00185  next Energy=  -543.050035 (dE=-0.140E-02)
 bond charge predicted
       N       E                     dE             d eps       ncg     rms          rms(c)
DAV:   1    -0.536115721689E+03    0.21341E-02   -0.36091E-01 27744   0.127E+00    0.121E-01
DAV:   2    -0.536115674063E+03    0.47626E-04   -0.48118E-03 32928   0.160E-01    0.721E-02
DAV:   3    -0.536115546150E+03    0.12791E-03   -0.36498E-04 33696   0.469E-02    0.249E-02
DAV:   4    -0.536115544580E+03    0.15697E-05   -0.81282E-05 33392   0.185E-02    0.943E-03
DAV:   5    -0.536115545051E+03   -0.47079E-06   -0.74197E-06 32128   0.645E-03
  39 F= -.54305014E+03 E0= -.54305014E+03  d E =-.150861E-02  mag=     0.0000
 curvature:  -1.30 expect dE=-0.322E-02 dE for cont linesearch -0.181E-04
 trial: gam= 0.46390 g(F)=  0.240E-02 g(S)=  0.833E-04 ort = 0.469E-03 (trialstep = 0.336E+00)
 search vector abs. value=  0.632E-02
 bond charge predicted
       N       E                     dE             d eps       ncg     rms          rms(c)
DAV:   1    -0.536114513262E+03    0.10313E-02   -0.12038E-01 27680   0.743E-01    0.702E-02
DAV:   2    -0.536114474251E+03    0.39011E-04   -0.14645E-03 33408   0.880E-02    0.403E-02
DAV:   3    -0.536114433723E+03    0.40528E-04   -0.11625E-04 34160   0.263E-02    0.138E-02
DAV:   4    -0.536114433045E+03    0.67786E-06   -0.24155E-05 32616   0.103E-02    0.539E-03
DAV:   5    -0.536114433116E+03   -0.70420E-07   -0.24044E-06 25704   0.381E-03
  40 F= -.54305088E+03 E0= -.54305088E+03  d E =-.743749E-03  mag=    -0.0000
 trial-energy change:   -0.000744  1 .order   -0.000731   -0.000908   -0.000553
 step:   0.6963(harm=  0.8596)  dis= 0.00175  next Energy=  -543.051196 (dE=-0.106E-02)
 bond charge predicted
       N       E                     dE             d eps       ncg     rms          rms(c)
DAV:   1    -0.536112927212E+03    0.15058E-02   -0.13758E-01 27648   0.795E-01    0.752E-02
DAV:   2    -0.536112881105E+03    0.46107E-04   -0.16748E-03 33424   0.940E-02    0.432E-02
DAV:   3    -0.536112834590E+03    0.46515E-04   -0.13367E-04 34104   0.282E-02    0.148E-02
DAV:   4    -0.536112833811E+03    0.77867E-06   -0.27681E-05 32600   0.110E-02    0.576E-03
DAV:   5    -0.536112833868E+03   -0.56705E-07   -0.27450E-06 27072   0.407E-03
  41 F= -.54305127E+03 E0= -.54305127E+03  d E =-.112966E-02  mag=     0.0000
 curvature:  -0.91 expect dE=-0.610E-03 dE for cont linesearch -0.306E-04
 ZBRENT: extrapolating
 opt :   0.8368  next Energy=  -543.051303 (dE=-0.116E-02)
 bond charge predicted
       N       E                     dE             d eps       ncg     rms          rms(c)
DAV:   1    -0.536112108225E+03    0.72559E-03   -0.21011E-02 27776   0.311E-01    0.291E-02
DAV:   2    -0.536112102124E+03    0.61015E-05   -0.25283E-04 33440   0.366E-02    0.167E-02
DAV:   3    -0.536112095258E+03    0.68660E-05   -0.20007E-05 34136   0.109E-02    0.576E-03
DAV:   4    -0.536112095208E+03    0.49382E-07   -0.40461E-06 23616   0.429E-03
  42 F= -.54305131E+03 E0= -.54305131E+03  d E =-.116567E-02  mag=     0.0000
 curvature:  -0.96 expect dE=-0.100E-02 dE for cont linesearch -0.369E-06
 trial: gam= 0.58531 g(F)=  0.782E-03 g(S)=  0.262E-03 ort = 0.492E-04 (trialstep = 0.436E+00)
 search vector abs. value=  0.327E-02
 bond charge predicted
       N       E                     dE             d eps       ncg     rms          rms(c)
DAV:   1    -0.536111614531E+03    0.48073E-03   -0.97646E-02 27328   0.652E-01    0.625E-02
DAV:   2    -0.536111600323E+03    0.14208E-04   -0.12596E-03 32688   0.747E-02    0.406E-02
DAV:   3    -0.536111548161E+03    0.52162E-04   -0.91218E-05 33960   0.227E-02    0.133E-02
DAV:   4    -0.536111545810E+03    0.23511E-05   -0.23154E-05 33320   0.944E-03    0.459E-03
DAV:   5    -0.536111545771E+03    0.39368E-07   -0.10382E-06 18912   0.266E-03
  43 F= -.54305165E+03 E0= -.54305165E+03  d E =-.344065E-03  mag=    -0.0000
 trial-energy change:   -0.000344  1 .order   -0.000346   -0.000468   -0.000224
 step:   0.8359(harm=  0.8359)  dis= 0.00172  next Energy=  -543.051755 (dE=-0.449E-03)
 bond charge predicted
       N       E                     dE             d eps       ncg     rms          rms(c)
DAV:   1    -0.536110892931E+03    0.65288E-03   -0.82033E-02 27328   0.598E-01    0.569E-02
DAV:   2    -0.536110882801E+03    0.10130E-04   -0.10662E-03 32672   0.686E-02    0.370E-02
DAV:   3    -0.536110839151E+03    0.43651E-04   -0.75528E-05 33960   0.207E-02    0.122E-02
DAV:   4    -0.536110837044E+03    0.21066E-05   -0.19420E-05 33120   0.865E-03    0.417E-03
DAV:   5    -0.536110836967E+03    0.77227E-07   -0.86835E-07 18072   0.239E-03
  44 F= -.54305176E+03 E0= -.54305176E+03  d E =-.452566E-03  mag=     0.0000
 curvature:  -1.27 expect dE=-0.181E-02 dE for cont linesearch -0.139E-06
 trial: gam= 1.26287 g(F)=  0.130E-02 g(S)=  0.123E-03 ort = 0.189E-04 (trialstep = 0.253E+00)
 search vector abs. value=  0.668E-02
 bond charge predicted
       N       E                     dE             d eps       ncg     rms          rms(c)
DAV:   1    -0.536110043153E+03    0.79389E-03   -0.64182E-02 27328   0.518E-01    0.549E-02
DAV:   2    -0.536110021163E+03    0.21990E-04   -0.81053E-04 32528   0.593E-02    0.332E-02
DAV:   3    -0.536109987738E+03    0.33424E-04   -0.68306E-05 33520   0.191E-02    0.109E-02
DAV:   4    -0.536109986293E+03    0.14456E-05   -0.13171E-05 32168   0.728E-03    0.407E-03
DAV:   5    -0.536109986211E+03    0.82060E-07   -0.10300E-06 18456   0.255E-03
  45 F= -.54305209E+03 E0= -.54305209E+03  d E =-.329990E-03  mag=     0.0000
 ZBRENT: can't locate minimum, use default step
 trial-energy change:   -0.000330  1 .order   -0.000330   -0.000365   -0.000296
 step:   1.0103(harm=  1.3389)  dis= 0.00461  next Energy=  -543.052726 (dE=-0.967E-03)
 bond charge predicted
       N       E                     dE             d eps       ncg     rms          rms(c)
DAV:   1    -0.536107539157E+03    0.24471E-02   -0.57732E-01 27328   0.155E+00    0.166E-01
DAV:   2    -0.536107334684E+03    0.20447E-03   -0.72906E-03 32560   0.178E-01    0.996E-02
DAV:   3    -0.536107036367E+03    0.29832E-03   -0.61221E-04 33520   0.573E-02    0.326E-02
DAV:   4    -0.536107023617E+03    0.12750E-04   -0.11970E-04 33736   0.219E-02    0.120E-02
DAV:   5    -0.536107022690E+03    0.92671E-06   -0.10078E-05 32576   0.744E-03    0.532E-03
DAV:   6    -0.536107022596E+03    0.94064E-07   -0.13907E-06 19792   0.299E-03
  46 F= -.54305266E+03 E0= -.54305266E+03  d E =-.903110E-03  mag=     0.0000
 curvature:  -2.81 expect dE=-0.427E-02 dE for cont linesearch -0.488E-04
 ZBRENT: extrapolating
 opt :   1.3205  next Energy=  -543.052715 (dE=-0.956E-03)
 bond charge predicted
       N       E                     dE             d eps       ncg     rms          rms(c)
DAV:   1    -0.536105716066E+03    0.13066E-02   -0.96821E-02 27328   0.637E-01    0.677E-02
DAV:   2    -0.536105680860E+03    0.35206E-04   -0.12244E-03 32576   0.730E-02    0.409E-02
DAV:   3    -0.536105629793E+03    0.51067E-04   -0.10472E-04 33520   0.237E-02    0.133E-02
DAV:   4    -0.536105627707E+03    0.20863E-05   -0.20296E-05 33320   0.901E-03    0.498E-03
DAV:   5    -0.536105627570E+03    0.13715E-06   -0.15508E-06 19968   0.310E-03
  47 F= -.54305271E+03 E0= -.54305271E+03  d E =-.952931E-03  mag=     0.0000
 curvature:  -3.04 expect dE=-0.759E-02 dE for cont linesearch -0.221E-08
 trial: gam= 1.78403 g(F)=  0.186E-02 g(S)=  0.638E-03 ort = 0.220E-05 (trialstep = 0.131E+00)
 search vector abs. value=  0.238E-01
 bond charge predicted
       N       E                     dE             d eps       ncg     rms          rms(c)
DAV:   1    -0.536104394863E+03    0.12328E-02   -0.63197E-02 27328   0.509E-01    0.582E-02
DAV:   2    -0.536104366517E+03    0.28347E-04   -0.78929E-04 32400   0.586E-02    0.319E-02
DAV:   3    -0.536104340064E+03    0.26453E-04   -0.70551E-05 33368   0.190E-02    0.106E-02
DAV:   4    -0.536104339127E+03    0.93761E-06   -0.12448E-05 32520   0.712E-03    0.458E-03
DAV:   5    -0.536104339193E+03   -0.66841E-07   -0.16158E-06 20376   0.308E-03
  48 F= -.54305302E+03 E0= -.54305302E+03  d E =-.303345E-03  mag=    -0.0000
 ZBRENT: can't locate minimum, use default step
 trial-energy change:   -0.000303  1 .order   -0.000303   -0.000327   -0.000279
 step:   0.5242(harm=  0.8844)  dis= 0.00501  next Energy=  -543.053816 (dE=-0.110E-02)
 bond charge predicted
       N       E                     dE             d eps       ncg     rms          rms(c)
DAV:   1    -0.536100711951E+03    0.36272E-02   -0.56839E-01 27328   0.153E+00    0.176E-01
DAV:   2    -0.536100436772E+03    0.27518E-03   -0.71084E-03 32384   0.176E-01    0.960E-02
DAV:   3    -0.536100194925E+03    0.24185E-03   -0.63326E-04 33392   0.569E-02    0.319E-02
DAV:   4    -0.536100184886E+03    0.10039E-04   -0.11317E-04 33872   0.214E-02    0.134E-02
DAV:   5    -0.536100183861E+03    0.10244E-05   -0.15438E-05 32416   0.912E-03    0.557E-03
DAV:   6    -0.536100183861E+03   -0.21464E-09   -0.22274E-06 22992   0.358E-03
  49 F= -.54305363E+03 E0= -.54305363E+03  d E =-.922585E-03  mag=     0.0000
 curvature:  -3.24 expect dE=-0.463E-02 dE for cont linesearch -0.135E-03
 ZBRENT: increasing intervall
 opt :   1.3104  next Energy=  -543.053525 (dE=-0.813E-03)
 bond charge predicted
       N       E                     dE             d eps       ncg     rms          rms(c)
DAV:   1    -0.536092783090E+03    0.74008E-02   -0.22747E+00 27328   0.305E+00    0.355E-01
DAV:   2    -0.536091610369E+03    0.11727E-02   -0.28615E-02 32368   0.353E-01    0.193E-01
DAV:   3    -0.536090633455E+03    0.97691E-03   -0.25176E-03 33376   0.114E-01    0.641E-02
DAV:   4    -0.536090590376E+03    0.43078E-04   -0.45751E-04 33824   0.429E-02    0.264E-02
DAV:   5    -0.536090584966E+03    0.54107E-05   -0.58882E-05 32440   0.179E-02    0.110E-02
DAV:   6    -0.536090584360E+03    0.60553E-06   -0.89862E-06 30280   0.705E-03
  50 F= -.54305358E+03 E0= -.54305358E+03  d E =-.870870E-03  mag=    -0.0000
 curvature:   2.62 expect dE= 0.175E-01 dE for cont linesearch  0.163E-03
 ZBRENT: bracketing found
 ZBRENT: interpolating
 opt :   0.8779  next Energy=  -543.053810 (dE=-0.110E-02)
 bond charge predicted
       N       E                     dE             d eps       ncg     rms          rms(c)
DAV:   1    -0.536096748365E+03   -0.61634E-02   -0.68742E-01 27328   0.168E+00    0.193E-01
DAV:   2    -0.536096397470E+03    0.35089E-03   -0.85490E-03 32384   0.194E-01    0.107E-01
DAV:   3    -0.536096096345E+03    0.30113E-03   -0.80620E-04 33248   0.640E-02    0.350E-02
DAV:   4    -0.536096083374E+03    0.12971E-04   -0.13974E-04 33760   0.239E-02    0.152E-02
DAV:   5    -0.536096079799E+03    0.35748E-05   -0.21212E-05 32368   0.106E-02    0.622E-03
DAV:   6    -0.536096079024E+03    0.77575E-06   -0.28944E-06 25024   0.407E-03
  51 F= -.54305383E+03 E0= -.54305383E+03  d E =-.111401E-02  mag=     0.0000
 curvature:  -2.83 expect dE=-0.772E-02 dE for cont linesearch -0.244E-05
 trial: gam= 1.05269 g(F)=  0.239E-02 g(S)=  0.344E-03 ort = 0.143E-03 (trialstep = 0.227E+00)
 search vector abs. value=  0.294E-01
 bond charge predicted
       N       E                     dE             d eps       ncg     rms          rms(c)
DAV:   1    -0.536094917435E+03    0.11624E-02   -0.24302E-01 27504   0.995E-01    0.971E-02
DAV:   2    -0.536094894567E+03    0.22869E-04   -0.28946E-03 32352   0.111E-01    0.594E-02
DAV:   3    -0.536094793955E+03    0.10061E-03   -0.20914E-04 33736   0.336E-02    0.192E-02
DAV:   4    -0.536094791069E+03    0.28863E-05   -0.46343E-05 33728   0.129E-02    0.709E-03
DAV:   5    -0.536094791214E+03   -0.14565E-06   -0.24442E-06 25720   0.392E-03
  52 F= -.54305443E+03 E0= -.54305443E+03  d E =-.605487E-03  mag=     0.0000
 ZBRENT: can't locate minimum, use default step
 trial-energy change:   -0.000605  1 .order   -0.000611   -0.000654   -0.000568
 step:   0.9077(harm=  1.7250)  dis= 0.01009  next Energy=  -543.056310 (dE=-0.248E-02)
 bond charge predicted
       N       E                     dE             d eps       ncg     rms          rms(c)
DAV:   1    -0.536091743980E+03    0.30471E-02   -0.21908E+00 27504   0.299E+00    0.292E-01
DAV:   2    -0.536091544500E+03    0.19948E-03   -0.26244E-02 32368   0.334E-01    0.178E-01
DAV:   3    -0.536090644560E+03    0.89994E-03   -0.18396E-03 33776   0.999E-02    0.580E-02
DAV:   4    -0.536090616305E+03    0.28256E-04   -0.42266E-04 33760   0.390E-02    0.211E-02
DAV:   5    -0.536090616747E+03   -0.44224E-06   -0.21137E-05 33000   0.113E-02    0.961E-03
DAV:   6    -0.536090616240E+03    0.50689E-06   -0.42151E-06 29232   0.501E-03
  53 F= -.54305592E+03 E0= -.54305592E+03  d E =-.209496E-02  mag=     0.0000
 curvature:  -6.17 expect dE=-0.126E-01 dE for cont linesearch -0.705E-03
 ZBRENT: increasing intervall
 opt :   2.2692  next Energy=  -543.057500 (dE=-0.367E-02)
 bond charge predicted
       N       E                     dE             d eps       ncg     rms          rms(c)
DAV:   1    -0.536085550872E+03    0.50659E-02   -0.87630E+00 27472   0.598E+00    0.592E-01
DAV:   2    -0.536084517037E+03    0.10338E-02   -0.10617E-01 32384   0.671E-01    0.356E-01
DAV:   3    -0.536080918563E+03    0.35985E-02   -0.71843E-03 33824   0.198E-01    0.118E-01
DAV:   4    -0.536080785728E+03    0.13284E-03   -0.17366E-03 33848   0.793E-02    0.414E-02
DAV:   5    -0.536080786871E+03   -0.11428E-05   -0.80439E-05 32976   0.221E-02    0.187E-02
DAV:   6    -0.536080784470E+03    0.24010E-05   -0.15232E-05 31472   0.938E-03    0.517E-03
DAV:   7    -0.536080784757E+03   -0.28725E-06   -0.24417E-06 25048   0.356E-03
  54 F= -.54305736E+03 E0= -.54305736E+03  d E =-.352969E-02  mag=    -0.0000
 curvature: -13.83 expect dE=-0.790E-01 dE for cont linesearch -0.561E-04
 trial: gam= 2.03717 g(F)=  0.505E-02 g(S)=  0.654E-03 ort = 0.345E-03 (trialstep = 0.145E+00)
 search vector abs. value=  0.129E+00
 bond charge predicted
       N       E                     dE             d eps       ncg     rms          rms(c)
DAV:   1    -0.536080179949E+03    0.60452E-03   -0.46501E-01 27856   0.138E+00    0.118E-01
DAV:   2    -0.536080251624E+03   -0.71675E-04   -0.53696E-03 32416   0.151E-01    0.774E-02
DAV:   3    -0.536080075517E+03    0.17611E-03   -0.33186E-04 34048   0.434E-02    0.243E-02
DAV:   4    -0.536080072829E+03    0.26880E-05   -0.94816E-05 33824   0.180E-02    0.903E-03
DAV:   5    -0.536080073198E+03   -0.36865E-06   -0.29837E-06 24360   0.432E-03
  55 F= -.54305815E+03 E0= -.54305815E+03  d E =-.799006E-03  mag=     0.0000
 trial-energy change:   -0.000799  1 .order   -0.000804   -0.000928   -0.000681
 step:   0.5451(harm=  0.5451)  dis= 0.01285  next Energy=  -543.059103 (dE=-0.175E-02)
 bond charge predicted
       N       E                     dE             d eps       ncg     rms          rms(c)
DAV:   1    -0.536077828488E+03    0.22443E-02   -0.35664E+00 27680   0.382E+00    0.328E-01
DAV:   2    -0.536078371445E+03   -0.54296E-03   -0.41416E-02 32416   0.421E-01    0.214E-01
DAV:   3    -0.536077039089E+03    0.13324E-02   -0.24696E-03 34032   0.119E-01    0.688E-02
DAV:   4    -0.536077012784E+03    0.26305E-04   -0.73476E-04 33824   0.504E-02    0.247E-02
DAV:   5    -0.536077015357E+03   -0.25732E-05   -0.25067E-05 32944   0.120E-02    0.106E-02
DAV:   6    -0.536077014599E+03    0.75849E-06   -0.21771E-06 25504   0.434E-03
  56 F= -.54305926E+03 E0= -.54305926E+03  d E =-.190314E-02  mag=    -0.0000
 curvature:  -5.48 expect dE=-0.117E-01 dE for cont linesearch -0.212E-04
 ZBRENT: extrapolating
 opt :   0.6156  next Energy=  -543.059284 (dE=-0.193E-02)
 bond charge predicted
       N       E                     dE             d eps       ncg     rms          rms(c)
DAV:   1    -0.536076327987E+03    0.68737E-03   -0.11083E-01 28128   0.674E-01    0.574E-02
DAV:   2    -0.536076345535E+03   -0.17548E-04   -0.12914E-03 32432   0.742E-02    0.378E-02
DAV:   3    -0.536076302976E+03    0.42560E-04   -0.79421E-05 33984   0.213E-02    0.119E-02
DAV:   4    -0.536076302242E+03    0.73364E-06   -0.22839E-05 32560   0.891E-03    0.449E-03
DAV:   5    -0.536076302433E+03   -0.19155E-06   -0.71779E-07 18160   0.237E-03
  57 F= -.54305928E+03 E0= -.54305928E+03  d E =-.192168E-02  mag=    -0.0000
 curvature:  -6.45 expect dE=-0.177E-01 dE for cont linesearch -0.928E-06
 trial: gam= 0.57468 g(F)=  0.175E-02 g(S)=  0.100E-02 ort =-0.136E-03 (trialstep = 0.239E+00)
 search vector abs. value=  0.452E-01
 bond charge predicted
       N       E                     dE             d eps       ncg     rms          rms(c)
DAV:   1    -0.536075639229E+03    0.66301E-03   -0.44796E-01 27952   0.135E+00    0.104E-01
DAV:   2    -0.536075813739E+03   -0.17451E-03   -0.49902E-03 32264   0.145E-01    0.703E-02
DAV:   3    -0.536075686318E+03    0.12742E-03   -0.24597E-04 34248   0.373E-02    0.231E-02
DAV:   4    -0.536075685860E+03    0.45811E-06   -0.82495E-05 33640   0.166E-02    0.857E-03
DAV:   5    -0.536075686695E+03   -0.83520E-06   -0.31482E-06 25616   0.419E-03
  58 F= -.54305987E+03 E0= -.54305987E+03  d E =-.596676E-03  mag=     0.0000
 trial-energy change:   -0.000597  1 .order   -0.000590   -0.000638   -0.000542
 step:   0.8088(harm=  1.5834)  dis= 0.01245  next Energy=  -543.060608 (dE=-0.133E-02)
 bond charge predicted
       N       E                     dE             d eps       ncg     rms          rms(c)
DAV:   1    -0.536073580117E+03    0.21057E-02   -0.25506E+00 27888   0.322E+00    0.250E-01
DAV:   2    -0.536074555362E+03   -0.97524E-03   -0.28537E-02 32288   0.347E-01    0.168E-01
DAV:   3    -0.536073828558E+03    0.72680E-03   -0.13855E-03 34256   0.886E-02    0.559E-02
DAV:   4    -0.536073823024E+03    0.55342E-05   -0.47505E-04 33608   0.399E-02    0.203E-02
DAV:   5    -0.536073827021E+03   -0.39967E-05   -0.18883E-05 32136   0.101E-02    0.844E-03
DAV:   6    -0.536073826531E+03    0.48976E-06   -0.10200E-06 19848   0.344E-03
  59 F= -.54306090E+03 E0= -.54306090E+03  d E =-.162224E-02  mag=    -0.0000
 curvature:  -8.94 expect dE=-0.244E-01 dE for cont linesearch -0.315E-03
 ZBRENT: increasing intervall
 opt :   1.9487  next Energy=  -543.061191 (dE=-0.191E-02)
 bond charge predicted
       N       E                     dE             d eps       ncg     rms          rms(c)
DAV:   1    -0.536067437670E+03    0.63894E-02   -0.10200E+01 27856   0.643E+00    0.505E-01
DAV:   2    -0.536071287994E+03   -0.38503E-02   -0.11558E-01 32336   0.699E-01    0.336E-01
DAV:   3    -0.536068387442E+03    0.29006E-02   -0.54174E-03 34352   0.175E-01    0.115E-01
DAV:   4    -0.536068340203E+03    0.47239E-04   -0.19452E-03 33552   0.814E-02    0.402E-02
DAV:   5    -0.536068354822E+03   -0.14618E-04   -0.82899E-05 32440   0.209E-02    0.157E-02
DAV:   6    -0.536068353210E+03    0.16114E-05   -0.40510E-06 29688   0.644E-03    0.517E-03
DAV:   7    -0.536068353385E+03   -0.17455E-06   -0.24515E-06 22192   0.367E-03
  60 F= -.54306117E+03 E0= -.54306117E+03  d E =-.189299E-02  mag=    -0.0000
 curvature:  -8.26 expect dE=-0.753E-01 dE for cont linesearch -0.113E-03
 ZBRENT: bracketing found
 ZBRENT: interpolating
 opt :   1.5110  next Energy=  -543.061343 (dE=-0.207E-02)
 bond charge predicted
       N       E                     dE             d eps       ncg     rms          rms(c)
DAV:   1    -0.536070607641E+03   -0.22544E-02   -0.15044E+00 27856   0.247E+00    0.190E-01
DAV:   2    -0.536071177389E+03   -0.56975E-03   -0.16669E-02 32304   0.266E-01    0.130E-01
DAV:   3    -0.536070738924E+03    0.43847E-03   -0.86725E-04 34256   0.705E-02    0.414E-02
DAV:   4    -0.536070738811E+03    0.11341E-06   -0.27671E-04 33408   0.304E-02    0.159E-02
DAV:   5    -0.536070740455E+03   -0.16445E-05   -0.11115E-05 31576   0.771E-03    0.707E-03
DAV:   6    -0.536070739816E+03    0.63933E-06   -0.85051E-07 19000   0.290E-03
  61 F= -.54306136E+03 E0= -.54306136E+03  d E =-.207810E-02  mag=    -0.0000
 curvature: -12.56 expect dE=-0.726E-01 dE for cont linesearch -0.655E-06
 trial: gam= 1.75536 g(F)=  0.497E-02 g(S)=  0.801E-03 ort = 0.485E-04 (trialstep = 0.154E+00)
 search vector abs. value=  0.145E+00
 bond charge predicted
       N       E                     dE             d eps       ncg     rms          rms(c)
DAV:   1    -0.536070915038E+03   -0.17458E-03   -0.60315E-01 27840   0.156E+00    0.114E-01
DAV:   2    -0.536071203807E+03   -0.28877E-03   -0.66678E-03 32336   0.166E-01    0.803E-02
DAV:   3    -0.536071037305E+03    0.16650E-03   -0.30942E-04 34304   0.421E-02    0.261E-02
DAV:   4    -0.536071037948E+03   -0.64309E-06   -0.11752E-04 33800   0.198E-02    0.105E-02
DAV:   5    -0.536071038199E+03   -0.25096E-06   -0.66332E-06 29296   0.601E-03
  62 F= -.54306217E+03 E0= -.54306217E+03  d E =-.812694E-03  mag=     0.0000
 ZBRENT: can't locate minimum, use default step
 trial-energy change:   -0.000813  1 .order   -0.000818   -0.000900   -0.000736
 step:   0.6141(harm=  0.8440)  dis= 0.01768  next Energy=  -543.063829 (dE=-0.247E-02)
 bond charge predicted
       N       E                     dE             d eps       ncg     rms          rms(c)
DAV:   1    -0.536069797236E+03    0.12407E-02   -0.54308E+00 27760   0.468E+00    0.344E-01
DAV:   2    -0.536072467116E+03   -0.26699E-02   -0.60892E-02 32320   0.500E-01    0.241E-01
DAV:   3    -0.536070978970E+03    0.14881E-02   -0.27106E-03 34312   0.124E-01    0.814E-02
DAV:   4    -0.536070970090E+03    0.88802E-05   -0.10747E-03 33832   0.603E-02    0.312E-02
DAV:   5    -0.536070972147E+03   -0.20574E-05   -0.64590E-05 31864   0.186E-02    0.943E-03
DAV:   6    -0.536070972207E+03   -0.59492E-07   -0.41450E-06 27576   0.558E-03
  63 F= -.54306363E+03 E0= -.54306363E+03  d E =-.227748E-02  mag=     0.0000
 curvature:  -9.29 expect dE=-0.265E-01 dE for cont linesearch -0.136E-03
 ZBRENT: extrapolating
 opt :   0.8157  next Energy=  -543.063780 (dE=-0.242E-02)
 bond charge predicted
       N       E                     dE             d eps       ncg     rms          rms(c)
DAV:   1    -0.536070255470E+03    0.71668E-03   -0.10408E+00 27792   0.205E+00    0.150E-01
DAV:   2    -0.536070763342E+03   -0.50787E-03   -0.11609E-02 32336   0.218E-01    0.105E-01
DAV:   3    -0.536070477169E+03    0.28617E-03   -0.52713E-04 34296   0.551E-02    0.350E-02
DAV:   4    -0.536070476861E+03    0.30856E-06   -0.20504E-04 33888   0.264E-02    0.137E-02
DAV:   5    -0.536070477742E+03   -0.88127E-06   -0.11991E-05 30888   0.817E-03    0.494E-03
DAV:   6    -0.536070477356E+03    0.38538E-06   -0.88621E-07 18960   0.278E-03
  64 F= -.54306380E+03 E0= -.54306380E+03  d E =-.244694E-02  mag=    -0.0000
 curvature: -10.02 expect dE=-0.399E-01 dE for cont linesearch -0.927E-08
 trial: gam= 0.58289 g(F)=  0.284E-02 g(S)=  0.114E-02 ort = 0.116E-04 (trialstep = 0.286E+00)
 search vector abs. value=  0.533E-01
 bond charge predicted
       N       E                     dE             d eps       ncg     rms          rms(c)
DAV:   1    -0.536073128045E+03   -0.26503E-02   -0.72986E-01 27744   0.173E+00    0.134E-01
DAV:   2    -0.536073400388E+03   -0.27234E-03   -0.82115E-03 32352   0.183E-01    0.919E-02
DAV:   3    -0.536073175875E+03    0.22451E-03   -0.43840E-04 34224   0.498E-02    0.295E-02
DAV:   4    -0.536073173884E+03    0.19906E-05   -0.13228E-04 33776   0.210E-02    0.112E-02
DAV:   5    -0.536073174323E+03   -0.43915E-06   -0.50791E-06 29272   0.544E-03
  65 F= -.54306477E+03 E0= -.54306477E+03  d E =-.963790E-03  mag=    -0.0000
 trial-energy change:   -0.000964  1 .order   -0.000938   -0.001140   -0.000735
 step:   0.5777(harm=  0.8047)  dis= 0.01037  next Energy=  -543.065169 (dE=-0.137E-02)
 bond charge predicted
       N       E                     dE             d eps       ncg     rms          rms(c)
DAV:   1    -0.536075470613E+03   -0.22967E-02   -0.76017E-01 27744   0.176E+00    0.136E-01
DAV:   2    -0.536075763782E+03   -0.29317E-03   -0.85709E-03 32352   0.187E-01    0.935E-02
DAV:   3    -0.536075532129E+03    0.23165E-03   -0.45129E-04 34224   0.506E-02    0.303E-02
DAV:   4    -0.536075529714E+03    0.24157E-05   -0.13738E-04 33800   0.215E-02    0.115E-02
DAV:   5    -0.536075530225E+03   -0.51100E-06   -0.55047E-06 29720   0.565E-03
  66 F= -.54306535E+03 E0= -.54306535E+03  d E =-.154742E-02  mag=     0.0000
 curvature:  -4.35 expect dE=-0.704E-02 dE for cont linesearch -0.113E-03
 ZBRENT: increasing intervall
 opt :   1.1612  next Energy=  -543.065226 (dE=-0.142E-02)
 bond charge predicted
       N       E                     dE             d eps       ncg     rms          rms(c)
DAV:   1    -0.536078751930E+03   -0.32222E-02   -0.30384E+00 27712   0.352E+00    0.271E-01
DAV:   2    -0.536079943234E+03   -0.11913E-02   -0.34293E-02 32400   0.374E-01    0.187E-01
DAV:   3    -0.536079014634E+03    0.92860E-03   -0.18284E-03 34208   0.102E-01    0.603E-02
DAV:   4    -0.536079006249E+03    0.83849E-05   -0.54802E-04 33816   0.429E-02    0.230E-02
DAV:   5    -0.536079008968E+03   -0.27195E-05   -0.21563E-05 33312   0.111E-02    0.114E-02
DAV:   6    -0.536079007527E+03    0.14419E-05   -0.22194E-06 25472   0.430E-03    0.389E-03
DAV:   7    -0.536079007389E+03    0.13789E-06   -0.11146E-06 17816   0.258E-03
  67 F= -.54306527E+03 E0= -.54306527E+03  d E =-.146932E-02  mag=    -0.0000
 curvature:   4.74 expect dE= 0.241E-01 dE for cont linesearch  0.217E-03
 ZBRENT: bracketing found
 ZBRENT: interpolating
 opt :   0.8288  next Energy=  -543.065498 (dE=-0.170E-02)
 bond charge predicted
       N       E                     dE             d eps       ncg     rms          rms(c)
DAV:   1    -0.536077163548E+03    0.18440E-02   -0.98589E-01 27712   0.201E+00    0.156E-01
DAV:   2    -0.536077528938E+03   -0.36539E-03   -0.11085E-02 32368   0.213E-01    0.106E-01
DAV:   3    -0.536077231460E+03    0.29748E-03   -0.57586E-04 34208   0.576E-02    0.349E-02
DAV:   4    -0.536077228809E+03    0.26506E-05   -0.18155E-04 33760   0.249E-02    0.130E-02
DAV:   5    -0.536077230429E+03   -0.16199E-05   -0.83048E-06 31408   0.683E-03    0.609E-03
DAV:   6    -0.536077230132E+03    0.29729E-06   -0.64564E-07 18192   0.245E-03
  68 F= -.54306552E+03 E0= -.54306552E+03  d E =-.171952E-02  mag=    -0.0000
 curvature:  -3.24 expect dE=-0.776E-02 dE for cont linesearch -0.579E-06
 trial: gam= 0.53954 g(F)=  0.182E-02 g(S)=  0.581E-03 ort = 0.976E-04 (trialstep = 0.395E+00)
 search vector abs. value=  0.180E-01
 bond charge predicted
       N       E                     dE             d eps       ncg     rms          rms(c)
DAV:   1    -0.536080492325E+03   -0.32619E-02   -0.43462E-01 27360   0.137E+00    0.127E-01
DAV:   2    -0.536080510966E+03   -0.18641E-04   -0.54076E-03 32448   0.151E-01    0.809E-02
DAV:   3    -0.536080321041E+03    0.18992E-03   -0.37548E-04 33760   0.454E-02    0.267E-02
DAV:   4    -0.536080312507E+03    0.85340E-05   -0.78547E-05 34152   0.175E-02    0.986E-03
DAV:   5    -0.536080311990E+03    0.51759E-06   -0.47242E-06 32048   0.530E-03
  69 F= -.54306628E+03 E0= -.54306628E+03  d E =-.753837E-03  mag=     0.0000
 trial-energy change:   -0.000754  1 .order   -0.000732   -0.000967   -0.000496
 step:   0.6749(harm=  0.8099)  dis= 0.00656  next Energy=  -543.066460 (dE=-0.938E-03)
 bond charge predicted
       N       E                     dE             d eps       ncg     rms          rms(c)
DAV:   1    -0.536082334494E+03   -0.20220E-02   -0.22015E-01 27392   0.975E-01    0.902E-02
DAV:   2    -0.536082349424E+03   -0.14930E-04   -0.27572E-03 32448   0.108E-01    0.574E-02
DAV:   3    -0.536082254165E+03    0.95259E-04   -0.18704E-04 33760   0.321E-02    0.191E-02
DAV:   4    -0.536082249796E+03    0.43686E-05   -0.39934E-05 34136   0.125E-02    0.704E-03
DAV:   5    -0.536082249575E+03    0.22134E-06   -0.21902E-06 24016   0.377E-03
  70 F= -.54306656E+03 E0= -.54306656E+03  d E =-.103588E-02  mag=    -0.0000
 curvature:  -2.66 expect dE=-0.457E-02 dE for cont linesearch -0.440E-04
 ZBRENT: increasing intervall
 opt :   1.2356  next Energy=  -543.066464 (dE=-0.942E-03)
 bond charge predicted
       N       E                     dE             d eps       ncg     rms          rms(c)
DAV:   1    -0.536085826300E+03   -0.35765E-02   -0.87868E-01 27328   0.195E+00    0.180E-01
DAV:   2    -0.536085883552E+03   -0.57252E-04   -0.10983E-02 32432   0.215E-01    0.115E-01
DAV:   3    -0.536085500970E+03    0.38258E-03   -0.75529E-04 33792   0.644E-02    0.380E-02
DAV:   4    -0.536085483377E+03    0.17592E-04   -0.15825E-04 34088   0.249E-02    0.141E-02
DAV:   5    -0.536085482481E+03    0.89654E-06   -0.96319E-06 33024   0.761E-03
  71 F= -.54306648E+03 E0= -.54306648E+03  d E =-.954565E-03  mag=     0.0000
 curvature:   5.66 expect dE= 0.322E-01 dE for cont linesearch  0.362E-03
 ZBRENT: bracketing found
 ZBRENT: interpolating
 opt :   0.8638  next Energy=  -543.066609 (dE=-0.109E-02)
 bond charge predicted
       N       E                     dE             d eps       ncg     rms          rms(c)
DAV:   1    -0.536083608428E+03    0.18749E-02   -0.38506E-01 27360   0.129E+00    0.121E-01
DAV:   2    -0.536083613022E+03   -0.45936E-05   -0.48109E-03 32400   0.142E-01    0.764E-02
DAV:   3    -0.536083442922E+03    0.17010E-03   -0.32663E-04 33792   0.426E-02    0.255E-02
DAV:   4    -0.536083434372E+03    0.85502E-05   -0.71275E-05 34024   0.168E-02    0.921E-03
DAV:   5    -0.536083434218E+03    0.15400E-06   -0.41030E-06 31136   0.513E-03
  72 F= -.54306663E+03 E0= -.54306663E+03  d E =-.110435E-02  mag=    -0.0000
 curvature:  -0.81 expect dE=-0.209E-02 dE for cont linesearch -0.122E-05
 trial: gam= 1.04754 g(F)=  0.220E-02 g(S)=  0.394E-03 ort = 0.165E-03 (trialstep = 0.387E+00)
 search vector abs. value=  0.227E-01
 bond charge predicted
       N       E                     dE             d eps       ncg     rms          rms(c)
DAV:   1    -0.536088813354E+03   -0.53790E-02   -0.47130E-01 27232   0.145E+00    0.169E-01
DAV:   2    -0.536088476975E+03    0.33638E-03   -0.62726E-03 32288   0.166E-01    0.977E-02
DAV:   3    -0.536088184962E+03    0.29201E-03   -0.61790E-04 33336   0.562E-02    0.323E-02
DAV:   4    -0.536088167799E+03    0.17163E-04   -0.94411E-05 33712   0.203E-02    0.123E-02
DAV:   5    -0.536088165068E+03    0.27310E-05   -0.11952E-05 32440   0.793E-03    0.518E-03
DAV:   6    -0.536088164651E+03    0.41627E-06   -0.12363E-06 20104   0.292E-03
  73 F= -.54306754E+03 E0= -.54306754E+03  d E =-.916930E-03  mag=    -0.0000
 trial-energy change:   -0.000917  1 .order   -0.000910   -0.001073   -0.000746
 step:   1.0404(harm=  1.2734)  dis= 0.01045  next Energy=  -543.068207 (dE=-0.158E-02)
 bond charge predicted
       N       E                     dE             d eps       ncg     rms          rms(c)
DAV:   1    -0.536097328250E+03   -0.91632E-02   -0.13404E+00 27200   0.245E+00    0.282E-01
DAV:   2    -0.536096426526E+03    0.90172E-03   -0.17834E-02 32288   0.279E-01    0.164E-01
DAV:   3    -0.536095600179E+03    0.82635E-03   -0.17584E-03 33328   0.946E-02    0.543E-02
DAV:   4    -0.536095552151E+03    0.48028E-04   -0.26473E-04 33680   0.340E-02    0.209E-02
DAV:   5    -0.536095544362E+03    0.77895E-05   -0.34941E-05 32480   0.134E-02    0.851E-03
DAV:   6    -0.536095543484E+03    0.87826E-06   -0.43890E-06 30040   0.505E-03
  74 F= -.54306849E+03 E0= -.54306849E+03  d E =-.185956E-02  mag=    -0.0000
 curvature:  -4.86 expect dE=-0.119E-01 dE for cont linesearch -0.129E-03
 ZBRENT: increasing intervall
 opt :   2.3465  next Energy=  -543.067997 (dE=-0.137E-02)
 bond charge predicted
       N       E                     dE             d eps       ncg     rms          rms(c)
DAV:   1    -0.536115014132E+03   -0.19470E-01   -0.53550E+00 27200   0.490E+00    0.559E-01
DAV:   2    -0.536111556246E+03    0.34579E-02   -0.71158E-02 32272   0.558E-01    0.328E-01
DAV:   3    -0.536108241021E+03    0.33152E-02   -0.72137E-03 33248   0.191E-01    0.108E-01
DAV:   4    -0.536108055638E+03    0.18538E-03   -0.10555E-03 33744   0.681E-02    0.427E-02
DAV:   5    -0.536108022204E+03    0.33434E-04   -0.15003E-04 32368   0.276E-02    0.171E-02
DAV:   6    -0.536108019255E+03    0.29488E-05   -0.18371E-05 31712   0.103E-02    0.628E-03
DAV:   7    -0.536108019179E+03    0.76245E-07   -0.24966E-06 25336   0.365E-03
  75 F= -.54306806E+03 E0= -.54306806E+03  d E =-.143087E-02  mag=     0.0000
 curvature:  18.42 expect dE= 0.239E+00 dE for cont linesearch  0.185E-02
 ZBRENT: bracketing found
 ZBRENT: interpolating
 opt :   1.4835  next Energy=  -543.068658 (dE=-0.203E-02)
 bond charge predicted
       N       E                     dE             d eps       ncg     rms          rms(c)
DAV:   1    -0.536103259236E+03    0.47600E-02   -0.23375E+00 27200   0.324E+00    0.376E-01
DAV:   2    -0.536101633043E+03    0.16262E-02   -0.31368E-02 32272   0.370E-01    0.215E-01
DAV:   3    -0.536100220836E+03    0.14122E-02   -0.28303E-03 33440   0.121E-01    0.733E-02
DAV:   4    -0.536100125826E+03    0.95010E-04   -0.46656E-04 33768   0.452E-02    0.264E-02
DAV:   5    -0.536100115280E+03    0.10547E-04   -0.51996E-05 32496   0.167E-02    0.111E-02
DAV:   6    -0.536100114776E+03    0.50340E-06   -0.66597E-06 30984   0.624E-03
  76 F= -.54306868E+03 E0= -.54306868E+03  d E =-.205724E-02  mag=     0.0000
 curvature:  -1.71 expect dE=-0.813E-02 dE for cont linesearch -0.256E-06
 trial: gam= 1.89885 g(F)=  0.395E-02 g(S)=  0.809E-03 ort = 0.583E-04 (trialstep = 0.159E+00)
 search vector abs. value=  0.869E-01
 bond charge predicted
       N       E                     dE             d eps       ncg     rms          rms(c)
DAV:   1    -0.536105265101E+03   -0.51498E-02   -0.28550E-01 27232   0.113E+00    0.147E-01
DAV:   2    -0.536104944755E+03    0.32035E-03   -0.39778E-03 32008   0.133E-01    0.783E-02
DAV:   3    -0.536104770414E+03    0.17434E-03   -0.42696E-04 32864   0.456E-02    0.274E-02
DAV:   4    -0.536104756808E+03    0.13606E-04   -0.61308E-05 33976   0.169E-02    0.112E-02
DAV:   5    -0.536104753688E+03    0.31202E-05   -0.11615E-05 32144   0.767E-03    0.405E-03
DAV:   6    -0.536104753384E+03    0.30459E-06   -0.10887E-06 19216   0.263E-03
  77 F= -.54306936E+03 E0= -.54306936E+03  d E =-.672002E-03  mag=    -0.0000
 trial-energy change:   -0.000672  1 .order   -0.000662   -0.000772   -0.000552
 step:   0.3942(harm=  0.5563)  dis= 0.00726  next Energy=  -543.069799 (dE=-0.112E-02)
 bond charge predicted
       N       E                     dE             d eps       ncg     rms          rms(c)
DAV:   1    -0.536112411433E+03   -0.76577E-02   -0.63051E-01 27200   0.168E+00    0.217E-01
DAV:   2    -0.536111725218E+03    0.68621E-03   -0.88022E-03 32048   0.197E-01    0.116E-01
DAV:   3    -0.536111339205E+03    0.38601E-03   -0.95067E-04 32864   0.679E-02    0.406E-02
DAV:   4    -0.536111310172E+03    0.29033E-04   -0.13571E-04 33976   0.251E-02    0.167E-02
DAV:   5    -0.536111303552E+03    0.66205E-05   -0.26516E-05 32176   0.115E-02    0.586E-03
DAV:   6    -0.536111303067E+03    0.48540E-06   -0.28951E-06 27192   0.401E-03
  78 F= -.54307001E+03 E0= -.54307001E+03  d E =-.132332E-02  mag=     0.0000
 curvature:  -4.14 expect dE=-0.615E-02 dE for cont linesearch -0.149E-03
 ZBRENT: increasing intervall
 opt :   0.8653  next Energy=  -543.070036 (dE=-0.135E-02)
 bond charge predicted
       N       E                     dE             d eps       ncg     rms          rms(c)
DAV:   1    -0.536127595703E+03   -0.16292E-01   -0.25190E+00 27200   0.336E+00    0.431E-01
DAV:   2    -0.536124893743E+03    0.27020E-02   -0.35020E-02 32032   0.394E-01    0.232E-01
DAV:   3    -0.536123350307E+03    0.15434E-02   -0.38645E-03 32848   0.137E-01    0.809E-02
DAV:   4    -0.536123237490E+03    0.11282E-03   -0.54505E-04 33960   0.503E-02    0.340E-02
DAV:   5    -0.536123210908E+03    0.26582E-04   -0.11108E-04 32096   0.234E-02    0.117E-02
DAV:   6    -0.536123209570E+03    0.13379E-05   -0.12136E-05 31776   0.813E-03    0.535E-03
DAV:   7    -0.536123209230E+03    0.34025E-06   -0.12747E-06 20256   0.276E-03
  79 F= -.54307009E+03 E0= -.54307009E+03  d E =-.140739E-02  mag=    -0.0000
 curvature:  -0.80 expect dE=-0.329E-02 dE for cont linesearch -0.262E-04
 ZBRENT: bracketing found
 ZBRENT: interpolating
 opt :   0.6357  next Energy=  -543.070284 (dE=-0.160E-02)
 bond charge predicted
       N       E                     dE             d eps       ncg     rms          rms(c)
DAV:   1    -0.536118658645E+03    0.45509E-02   -0.59826E-01 27200   0.164E+00    0.213E-01
DAV:   2    -0.536117999539E+03    0.65911E-03   -0.84095E-03 32032   0.192E-01    0.113E-01
DAV:   3    -0.536117639659E+03    0.35988E-03   -0.85987E-04 32936   0.650E-02    0.399E-02
DAV:   4    -0.536117611301E+03    0.28358E-04   -0.12714E-04 34000   0.243E-02    0.158E-02
DAV:   5    -0.536117606800E+03    0.45009E-05   -0.22951E-05 32192   0.108E-02    0.570E-03
DAV:   6    -0.536117606909E+03   -0.10918E-06   -0.24688E-06 25592   0.376E-03
  80 F= -.54307025E+03 E0= -.54307025E+03  d E =-.157129E-02  mag=    -0.0000
 curvature:  -5.93 expect dE=-0.116E-01 dE for cont linesearch -0.182E-05
 trial: gam= 0.37797 g(F)=  0.189E-02 g(S)=  0.699E-04 ort = 0.163E-03 (trialstep = 0.254E+00)
 search vector abs. value=  0.145E-01
 bond charge predicted
       N       E                     dE             d eps       ncg     rms          rms(c)
DAV:   1    -0.536120836093E+03   -0.32293E-02   -0.11584E-01 27232   0.739E-01    0.923E-02
DAV:   2    -0.536120738083E+03    0.98010E-04   -0.17006E-03 32256   0.883E-02    0.481E-02
DAV:   3    -0.536120679345E+03    0.58738E-04   -0.15636E-04 32936   0.278E-02    0.175E-02
DAV:   4    -0.536120674095E+03    0.52498E-05   -0.22961E-05 34088   0.105E-02    0.730E-03
DAV:   5    -0.536120672951E+03    0.11439E-05   -0.44929E-06 31488   0.481E-03    0.251E-03
DAV:   6    -0.536120672806E+03    0.14486E-06   -0.46542E-07 16592   0.171E-03
  81 F= -.54307069E+03 E0= -.54307069E+03  d E =-.440090E-03  mag=    -0.0000
 trial-energy change:   -0.000440  1 .order   -0.000435   -0.000513   -0.000356
 step:   0.6323(harm=  0.8276)  dis= 0.00416  next Energy=  -543.070978 (dE=-0.723E-03)
 bond charge predicted
       N       E                     dE             d eps       ncg     rms          rms(c)
[...]
 search vector abs. value=  0.877E-02
 bond charge predicted
       N       E                     dE             d eps       ncg     rms          rms(c)
DAV:   1    -0.536155785729E+03    0.57296E-03   -0.97621E-02 27200   0.690E-01    0.584E-02
DAV:   2    -0.536155827673E+03   -0.41944E-04   -0.13173E-03 32256   0.776E-02    0.376E-02
DAV:   3    -0.536155795598E+03    0.32076E-04   -0.58632E-05 33824   0.195E-02    0.141E-02
DAV:   4    -0.536155793426E+03    0.21714E-05   -0.17387E-05 33152   0.886E-03    0.441E-03
DAV:   5    -0.536155793544E+03   -0.11816E-06   -0.10286E-06 18704   0.277E-03
 107 F= -.54307738E+03 E0= -.54307738E+03  d E =-.189725E-03  mag=    -0.0000
 trial-energy change:   -0.000190  1 .order   -0.000191   -0.000260   -0.000123
 step:   0.5654(harm=  0.5654)  dis= 0.00267  next Energy=  -543.077441 (dE=-0.247E-03)
 bond charge predicted
       N       E                     dE             d eps       ncg     rms          rms(c)
DAV:   1    -0.536155164387E+03    0.62904E-03   -0.79569E-02 27200   0.623E-01    0.523E-02
DAV:   2    -0.536155203400E+03   -0.39013E-04   -0.10820E-03 32288   0.702E-02    0.336E-02
DAV:   3    -0.536155178255E+03    0.25145E-04   -0.45841E-05 33872   0.173E-02    0.128E-02
DAV:   4    -0.536155176455E+03    0.18005E-05   -0.13973E-05 33192   0.797E-03    0.397E-03
DAV:   5    -0.536155176546E+03   -0.91262E-07   -0.83908E-07 17640   0.249E-03
 108 F= -.54307745E+03 E0= -.54307745E+03  d E =-.253199E-03  mag=     0.0000
 curvature:  -2.84 expect dE=-0.114E-02 dE for cont linesearch -0.704E-06
 trial: gam= 0.37670 g(F)=  0.375E-03 g(S)=  0.245E-04 ort = 0.466E-04 (trialstep = 0.351E+00)
 search vector abs. value=  0.168E-02
 bond charge predicted
       N       E                     dE             d eps       ncg     rms          rms(c)
DAV:   1    -0.536155106835E+03    0.69620E-04   -0.25144E-02 27232   0.345E-01    0.270E-02
DAV:   2    -0.536155124543E+03   -0.17709E-04   -0.32457E-04 32856   0.371E-02    0.185E-02
DAV:   3    -0.536155118378E+03    0.61646E-05   -0.11199E-05 33848   0.863E-03    0.743E-03
DAV:   4    -0.536155117993E+03    0.38542E-06   -0.45764E-06 27656   0.459E-03
 109 F= -.54307758E+03 E0= -.54307758E+03  d E =-.130473E-03  mag=     0.0000
 trial-energy change:   -0.000130  1 .order   -0.000126   -0.000146   -0.000106
 step:   0.7384(harm=  1.2653)  dis= 0.00119  next Energy=  -543.077642 (dE=-0.195E-03)
 bond charge predicted
       N       E                     dE             d eps       ncg     rms          rms(c)
DAV:   1    -0.536154997963E+03    0.12042E-03   -0.30704E-02 27200   0.381E-01    0.300E-02
DAV:   2    -0.536155019608E+03   -0.21645E-04   -0.39505E-04 32824   0.410E-02    0.205E-02
DAV:   3    -0.536155012147E+03    0.74604E-05   -0.13582E-05 34248   0.954E-03    0.827E-03
DAV:   4    -0.536155011690E+03    0.45763E-06   -0.56183E-06 29264   0.510E-03
 110 F= -.54307768E+03 E0= -.54307768E+03  d E =-.232721E-03  mag=     0.0000
 curvature:  -1.70 expect dE=-0.548E-03 dE for cont linesearch -0.353E-04
 ZBRENT: increasing intervall
 opt :   1.5134  next Energy=  -543.077736 (dE=-0.288E-03)
 bond charge predicted
       N       E                     dE             d eps       ncg     rms          rms(c)
DAV:   1    -0.536154617668E+03    0.39448E-03   -0.12266E-01 27200   0.761E-01    0.599E-02
DAV:   2    -0.536154702665E+03   -0.84997E-04   -0.15765E-03 32784   0.819E-02    0.411E-02
DAV:   3    -0.536154672595E+03    0.30070E-04   -0.54773E-05 34360   0.191E-02    0.164E-02
DAV:   4    -0.536154670911E+03    0.16831E-05   -0.22475E-05 33072   0.101E-02    0.500E-03
DAV:   5    -0.536154670991E+03   -0.79441E-07   -0.23783E-06 22016   0.400E-03
 111 F= -.54307776E+03 E0= -.54307776E+03  d E =-.308900E-03  mag=    -0.0000
 curvature:  -2.69 expect dE=-0.283E-02 dE for cont linesearch -0.548E-06
 trial: gam= 2.76662 g(F)=  0.976E-03 g(S)=  0.778E-04 ort =-0.185E-04 (trialstep = 0.710E-01)
 search vector abs. value=  0.138E-01
 bond charge predicted
       N       E                     dE             d eps       ncg     rms          rms(c)
DAV:   1    -0.536154610730E+03    0.60181E-04   -0.90360E-03 27440   0.205E-01    0.157E-02
DAV:   2    -0.536154617356E+03   -0.66255E-05   -0.11465E-04 32656   0.218E-02    0.107E-02
DAV:   3    -0.536154615308E+03    0.20477E-05   -0.38870E-06 31112   0.501E-03    0.412E-03
DAV:   4    -0.536154615272E+03    0.36420E-07   -0.14374E-06 18880   0.264E-03
 112 F= -.54307782E+03 E0= -.54307782E+03  d E =-.682710E-04  mag=    -0.0000
 ZBRENT: can't locate minimum, use default step
 trial-energy change:   -0.000068  1 .order   -0.000067   -0.000071   -0.000063
 step:   0.2839(harm=  0.6471)  dis= 0.00134  next Energy=  -543.078080 (dE=-0.324E-03)
 bond charge predicted
       N       E                     dE             d eps       ncg     rms          rms(c)
DAV:   1    -0.536154374365E+03    0.24094E-03   -0.81281E-02 27280   0.614E-01    0.474E-02
DAV:   2    -0.536154429248E+03   -0.54882E-04   -0.10156E-03 32656   0.653E-02    0.323E-02
DAV:   3    -0.536154409717E+03    0.19531E-04   -0.37250E-05 34504   0.154E-02    0.120E-02
DAV:   4    -0.536154409335E+03    0.38220E-06   -0.13349E-05 31536   0.751E-03    0.396E-03
DAV:   5    -0.536154409451E+03   -0.11602E-06   -0.11677E-06 18624   0.273E-03
 113 F= -.54307799E+03 E0= -.54307799E+03  d E =-.234199E-03  mag=     0.0000
 curvature:  -2.68 expect dE=-0.165E-02 dE for cont linesearch -0.779E-04
 ZBRENT: increasing intervall
 opt :   0.7097  next Energy=  -543.078149 (dE=-0.393E-03)
 bond charge predicted
       N       E                     dE             d eps       ncg     rms          rms(c)
DAV:   1    -0.536153687977E+03    0.72136E-03   -0.32495E-01 27264   0.123E+00    0.945E-02
DAV:   2    -0.536153905849E+03   -0.21787E-03   -0.40651E-03 32640   0.131E-01    0.646E-02
DAV:   3    -0.536153827130E+03    0.78719E-04   -0.14890E-04 34528   0.307E-02    0.240E-02
DAV:   4    -0.536153825384E+03    0.17456E-05   -0.53624E-05 33072   0.150E-02    0.783E-03
DAV:   5    -0.536153825618E+03   -0.23377E-06   -0.48549E-06 28416   0.527E-03
 114 F= -.54307815E+03 E0= -.54307815E+03  d E =-.393002E-03  mag=    -0.0000
 curvature:  -5.48 expect dE=-0.350E-02 dE for cont linesearch -0.464E-05
 trial: gam= 0.33067 g(F)=  0.608E-03 g(S)=  0.298E-04 ort = 0.108E-03 (trialstep = 0.199E+00)
 search vector abs. value=  0.222E-02
 bond charge predicted
       N       E                     dE             d eps       ncg     rms          rms(c)
DAV:   1    -0.536153987835E+03   -0.16245E-03   -0.11347E-02 27888   0.235E-01    0.178E-02
DAV:   2    -0.536153996716E+03   -0.88806E-05   -0.15697E-04 32968   0.272E-02    0.123E-02
DAV:   3    -0.536153994111E+03    0.26050E-05   -0.53561E-06 32776   0.623E-03    0.522E-03
DAV:   4    -0.536153993996E+03    0.11451E-06   -0.20114E-06 19592   0.328E-03
 115 F= -.54307827E+03 E0= -.54307827E+03  d E =-.121406E-03  mag=    -0.0000
 ZBRENT: can't locate minimum, use default step
 trial-energy change:   -0.000121  1 .order   -0.000119   -0.000134   -0.000105
 step:   0.7949(harm=  0.9126)  dis= 0.00158  next Energy=  -543.078456 (dE=-0.308E-03)
 bond charge predicted
       N       E                     dE             d eps       ncg     rms          rms(c)
DAV:   1    -0.536154284355E+03   -0.29024E-03   -0.10207E-01 27376   0.703E-01    0.535E-02
DAV:   2    -0.536154358607E+03   -0.74253E-04   -0.13823E-03 32984   0.811E-02    0.374E-02
DAV:   3    -0.536154333490E+03    0.25117E-04   -0.51056E-05 34248   0.192E-02    0.153E-02
DAV:   4    -0.536154332239E+03    0.12513E-05   -0.19083E-05 32944   0.960E-03    0.451E-03
DAV:   5    -0.536154332492E+03   -0.25356E-06   -0.20731E-06 19776   0.349E-03
 116 F= -.54307847E+03 E0= -.54307847E+03  d E =-.318610E-03  mag=     0.0000
 curvature:  -1.46 expect dE=-0.655E-03 dE for cont linesearch -0.917E-05
 ZBRENT: extrapolating
 opt :   0.9668  next Energy=  -543.078478 (dE=-0.329E-03)
 bond charge predicted
       N       E                     dE             d eps       ncg     rms          rms(c)
DAV:   1    -0.536154380428E+03   -0.48189E-04   -0.85021E-03 27968   0.203E-01    0.154E-02
DAV:   2    -0.536154387285E+03   -0.68569E-05   -0.11698E-04 33000   0.235E-02    0.106E-02
DAV:   3    -0.536154385402E+03    0.18825E-05   -0.39847E-06 31192   0.537E-03    0.448E-03
DAV:   4    -0.536154385335E+03    0.66962E-07   -0.14769E-06 18880   0.282E-03
 117 F= -.54307848E+03 E0= -.54307848E+03  d E =-.330634E-03  mag=     0.0000
 curvature:  -1.62 expect dE=-0.106E-02 dE for cont linesearch -0.640E-10
 trial: gam= 1.11132 g(F)=  0.643E-03 g(S)=  0.122E-04 ort = 0.297E-06 (trialstep = 0.230E+00)
 search vector abs. value=  0.340E-02
 bond charge predicted
       N       E                     dE             d eps       ncg     rms          rms(c)
DAV:   1    -0.536154715713E+03   -0.33031E-03   -0.21819E-02 27392   0.322E-01    0.253E-02
DAV:   2    -0.536154730618E+03   -0.14905E-04   -0.28816E-04 32872   0.367E-02    0.172E-02
DAV:   3    -0.536154725808E+03    0.48102E-05   -0.94594E-06 33792   0.813E-03    0.705E-03
DAV:   4    -0.536154725540E+03    0.26802E-06   -0.36850E-06 25032   0.413E-03
 118 F= -.54307861E+03 E0= -.54307861E+03  d E =-.134560E-03  mag=     0.0000
 trial-energy change:   -0.000135  1 .order   -0.000130   -0.000151   -0.000109
 step:   0.4783(harm=  0.8262)  dis= 0.00111  next Energy=  -543.078679 (dE=-0.199E-03)
 bond charge predicted
       N       E                     dE             d eps       ncg     rms          rms(c)
DAV:   1    -0.536155034267E+03   -0.30846E-03   -0.25370E-02 27392   0.347E-01    0.273E-02
DAV:   2    -0.536155052131E+03   -0.17864E-04   -0.33635E-04 32912   0.396E-02    0.186E-02
DAV:   3    -0.536155046611E+03    0.55191E-05   -0.10810E-05 34008   0.873E-03    0.769E-03
DAV:   4    -0.536155046308E+03    0.30344E-06   -0.43665E-06 27336   0.451E-03
 119 F= -.54307871E+03 E0= -.54307871E+03  d E =-.233699E-03  mag=     0.0000
 curvature:  -1.41 expect dE=-0.352E-03 dE for cont linesearch -0.346E-04
 ZBRENT: increasing intervall
 opt :   0.9744  next Energy=  -543.078765 (dE=-0.286E-03)
 bond charge predicted
       N       E                     dE             d eps       ncg     rms          rms(c)
DAV:   1    -0.536155510458E+03   -0.46385E-03   -0.10137E-01 27392   0.694E-01    0.544E-02
DAV:   2    -0.536155581513E+03   -0.71054E-04   -0.13429E-03 32880   0.793E-02    0.372E-02
DAV:   3    -0.536155559410E+03    0.22103E-04   -0.43811E-05 34128   0.175E-02    0.153E-02
DAV:   4    -0.536155558403E+03    0.10071E-05   -0.17592E-05 33056   0.893E-03    0.448E-03
DAV:   5    -0.536155558463E+03   -0.60199E-07   -0.14699E-06 19224   0.331E-03
 120 F= -.54307878E+03 E0= -.54307878E+03  d E =-.301456E-03  mag=    -0.0000
 curvature:  -2.12 expect dE=-0.846E-03 dE for cont linesearch -0.201E-05
 trial: gam= 0.64633 g(F)=  0.315E-03 g(S)=  0.842E-04 ort =-0.567E-04 (trialstep = 0.379E+00)
 search vector abs. value=  0.174E-02
 bond charge predicted
       N       E                     dE             d eps       ncg     rms          rms(c)
DAV:   1    -0.536155287922E+03    0.27048E-03   -0.35859E-02 27584   0.403E-01    0.323E-02
DAV:   2    -0.536155310088E+03   -0.22166E-04   -0.48874E-04 32440   0.476E-02    0.219E-02
DAV:   3    -0.536155300742E+03    0.93463E-05   -0.19055E-05 34232   0.113E-02    0.836E-03
DAV:   4    -0.536155300745E+03   -0.29795E-08   -0.71455E-06 29112   0.541E-03
 121 F= -.54307889E+03 E0= -.54307889E+03  d E =-.109006E-03  mag=    -0.0000
 trial-energy change:   -0.000109  1 .order   -0.000103   -0.000137   -0.000069
 step:   0.5977(harm=  0.7660)  dis= 0.00075  next Energy=  -543.078911 (dE=-0.130E-03)
 bond charge predicted
       N       E                     dE             d eps       ncg     rms          rms(c)
DAV:   1    -0.536155119439E+03    0.18130E-03   -0.11972E-02 27616   0.233E-01    0.187E-02
DAV:   2    -0.536155127239E+03   -0.77999E-05   -0.16131E-04 32496   0.274E-02    0.126E-02
DAV:   3    -0.536155124354E+03    0.28857E-05   -0.61785E-06 32776   0.649E-03    0.485E-03
DAV:   4    -0.536155124447E+03   -0.93034E-07   -0.22654E-06 19536   0.319E-03
 122 F= -.54307893E+03 E0= -.54307893E+03  d E =-.144317E-03  mag=    -0.0000
 curvature:  -1.49 expect dE=-0.432E-03 dE for cont linesearch -0.904E-05
 ZBRENT: increasing intervall
 opt :   1.0351  next Energy=  -543.078935 (dE=-0.154E-03)
 bond charge predicted
       N       E                     dE             d eps       ncg     rms          rms(c)
DAV:   1    -0.536154694731E+03    0.42962E-03   -0.47723E-02 27568   0.464E-01    0.375E-02
DAV:   2    -0.536154723381E+03   -0.28650E-04   -0.64562E-04 32448   0.548E-02    0.254E-02
DAV:   3    -0.536154710765E+03    0.12615E-04   -0.25764E-05 34320   0.132E-02    0.960E-03
DAV:   4    -0.536154710778E+03   -0.12085E-07   -0.95694E-06 30088   0.625E-03
 123 F= -.54307893E+03 E0= -.54307893E+03  d E =-.153505E-03  mag=    -0.0000
 curvature:  -1.61 expect dE=-0.112E-02 dE for cont linesearch -0.947E-05
 ZBRENT: bracketing found
 ZBRENT: interpolating
 opt :   0.8178  next Energy=  -543.078946 (dE=-0.165E-03)
 bond charge predicted
       N       E                     dE             d eps       ncg     rms          rms(c)
DAV:   1    -0.536154925400E+03   -0.21463E-03   -0.11701E-02 27616   0.230E-01    0.185E-02
DAV:   2    -0.536154930930E+03   -0.55301E-05   -0.15964E-04 32304   0.274E-02    0.128E-02
DAV:   3    -0.536154927225E+03    0.37056E-05   -0.67754E-06 32888   0.674E-03    0.480E-03
DAV:   4    -0.536154926994E+03    0.23023E-06   -0.24362E-06 19440   0.330E-03
 124 F= -.54307894E+03 E0= -.54307894E+03  d E =-.159657E-03  mag=    -0.0000
 curvature:  -1.87 expect dE=-0.818E-03 dE for cont linesearch -0.109E-05
 trial: gam= 0.91750 g(F)=  0.422E-03 g(S)=  0.158E-04 ort = 0.320E-04 (trialstep = 0.415E+00)
 search vector abs. value=  0.196E-02
 bond charge predicted
       N       E                     dE             d eps       ncg     rms          rms(c)
DAV:   1    -0.536154885360E+03    0.41864E-04   -0.44319E-02 27632   0.441E-01    0.336E-02
DAV:   2    -0.536154912230E+03   -0.26870E-04   -0.58306E-04 33120   0.517E-02    0.239E-02
DAV:   3    -0.536154902108E+03    0.10123E-04   -0.20395E-05 34248   0.115E-02    0.998E-03
DAV:   4    -0.536154902078E+03    0.29817E-07   -0.89885E-06 30960   0.609E-03
 125 F= -.54307909E+03 E0= -.54307909E+03  d E =-.148285E-03  mag=    -0.0000
 trial-energy change:   -0.000148  1 .order   -0.000144   -0.000193   -0.000094
 step:   0.6807(harm=  0.8038)  dis= 0.00074  next Energy=  -543.079120 (dE=-0.180E-03)
 bond charge predicted
       N       E                     dE             d eps       ncg     rms          rms(c)
DAV:   1    -0.536154834651E+03    0.67456E-04   -0.18394E-02 27632   0.284E-01    0.220E-02
DAV:   2    -0.536154846894E+03   -0.12242E-04   -0.24105E-04 33168   0.332E-02    0.154E-02
DAV:   3    -0.536154843118E+03    0.37755E-05   -0.81363E-06 32984   0.735E-03    0.650E-03
DAV:   4    -0.536154843290E+03   -0.17233E-06   -0.36692E-06 25152   0.404E-03
 126 F= -.54307914E+03 E0= -.54307914E+03  d E =-.200420E-03  mag=    -0.0000
 curvature:  -1.52 expect dE=-0.216E-03 dE for cont linesearch -0.957E-05
 ZBRENT: increasing intervall
 opt :   1.2130  next Energy=  -543.079139 (dE=-0.198E-03)
 bond charge predicted
       N       E                     dE             d eps       ncg     rms          rms(c)
DAV:   1    -0.536154591212E+03    0.25191E-03   -0.73272E-02 27616   0.566E-01    0.438E-02
DAV:   2    -0.536154638161E+03   -0.46949E-04   -0.96254E-04 33152   0.663E-02    0.308E-02
DAV:   3    -0.536154622097E+03    0.16064E-04   -0.33247E-05 34256   0.147E-02    0.129E-02
DAV:   4    -0.536154622157E+03   -0.59423E-07   -0.14691E-05 32416   0.783E-03    0.357E-03
DAV:   5    -0.536154622433E+03   -0.27670E-06   -0.11570E-06 18248   0.278E-03
 127 F= -.54307914E+03 E0= -.54307914E+03  d E =-.200709E-03  mag=    -0.0000
 curvature:   0.32 expect dE= 0.168E-03 dE for cont linesearch  0.297E-05
 ZBRENT: bracketing found
 ZBRENT: interpolating
 opt :   0.9214  next Energy=  -543.079155 (dE=-0.214E-03)
 bond charge predicted
       N       E                     dE             d eps       ncg     rms          rms(c)
DAV:   1    -0.536154754477E+03   -0.13232E-03   -0.21907E-02 27632   0.310E-01    0.240E-02
DAV:   2    -0.536154766929E+03   -0.12452E-04   -0.28536E-04 33104   0.363E-02    0.170E-02
DAV:   3    -0.536154761411E+03    0.55175E-05   -0.10433E-05 33400   0.823E-03    0.696E-03
DAV:   4    -0.536154761054E+03    0.35745E-06   -0.44166E-06 26104   0.426E-03
 128 F= -.54307916E+03 E0= -.54307916E+03  d E =-.218353E-03  mag=     0.0000
 curvature:  -1.45 expect dE=-0.365E-03 dE for cont linesearch -0.970E-06
 trial: gam= 0.68358 g(F)=  0.182E-03 g(S)=  0.697E-04 ort = 0.362E-04 (trialstep = 0.516E+00)
 search vector abs. value=  0.122E-02
 bond charge predicted
       N       E                     dE             d eps       ncg     rms          rms(c)
DAV:   1    -0.536155157195E+03   -0.39578E-03   -0.47199E-02 27408   0.453E-01    0.377E-02
DAV:   2    -0.536155176991E+03   -0.19796E-04   -0.62665E-04 32816   0.532E-02    0.261E-02
DAV:   3    -0.536155160724E+03    0.16267E-04   -0.27601E-05 34256   0.132E-02    0.931E-03
DAV:   4    -0.536155159943E+03    0.78100E-06   -0.10415E-05 31032   0.625E-03    0.292E-03
DAV:   5    -0.536155159893E+03    0.49711E-07   -0.51513E-07 16784   0.186E-03
 129 F= -.54307924E+03 E0= -.54307924E+03  d E =-.797524E-04  mag=    -0.0000
 trial-energy change:   -0.000080  1 .order   -0.000086   -0.000143   -0.000029
 step:   0.7605(harm=  0.6465)  dis= 0.00068  next Energy=  -543.079245 (dE=-0.859E-04)
 bond charge predicted
       N       E                     dE             d eps       ncg     rms          rms(c)
DAV:   1    -0.536155311342E+03   -0.15140E-03   -0.10655E-02 27408   0.215E-01    0.178E-02
DAV:   2    -0.536155316098E+03   -0.47558E-05   -0.14244E-04 32896   0.252E-02    0.122E-02
DAV:   3    -0.536155312413E+03    0.36851E-05   -0.58854E-06 32072   0.612E-03    0.450E-03
DAV:   4    -0.536155312134E+03    0.27909E-06   -0.22258E-06 19896   0.302E-03
 130 F= -.54307924E+03 E0= -.54307924E+03  d E =-.806644E-04  mag=    -0.0000
 curvature:  -0.34 expect dE=-0.800E-04 dE for cont linesearch -0.498E-06
 ZBRENT: interpolating
 opt :   0.6550  next Energy=  -543.079242 (dE=-0.829E-04)
 bond charge predicted
       N       E                     dE             d eps       ncg     rms          rms(c)
DAV:   1    -0.536155248937E+03    0.63476E-04   -0.19690E-03 27520   0.925E-02    0.771E-03
DAV:   2    -0.536155250004E+03   -0.10675E-05   -0.26224E-05 32432   0.109E-02    0.540E-03
DAV:   3    -0.536155249487E+03    0.51720E-06   -0.11392E-06 20952   0.277E-03
 131 F= -.54307924E+03 E0= -.54307924E+03  d E =-.831959E-04  mag=     0.0000
 curvature:  -1.52 expect dE=-0.255E-03 dE for cont linesearch -0.478E-07
 trial: gam= 0.68364 g(F)=  0.133E-03 g(S)=  0.352E-04 ort = 0.620E-05 (trialstep = 0.544E+00)
 search vector abs. value=  0.746E-03
 bond charge predicted
       N       E                     dE             d eps       ncg     rms          rms(c)
DAV:   1    -0.536154758850E+03    0.49115E-03   -0.29333E-02 27328   0.364E-01    0.328E-02
DAV:   2    -0.536154768243E+03   -0.93931E-05   -0.40316E-04 32272   0.433E-02    0.216E-02
DAV:   3    -0.536154757518E+03    0.10725E-04   -0.19715E-05 33840   0.111E-02    0.777E-03
DAV:   4    -0.536154757081E+03    0.43661E-06   -0.61102E-06 28624   0.497E-03
 132 F= -.54307932E+03 E0= -.54307932E+03  d E =-.757220E-04  mag=     0.0000
 trial-energy change:   -0.000076  1 .order   -0.000076   -0.000094   -0.000059
 step:   1.4808(harm=  1.4808)  dis= 0.00145  next Energy=  -543.079370 (dE=-0.127E-03)
 reached required accuracy - stopping structural energy minimisation
