       N       E                     dE             d eps       ncg     rms          rms(c)
DAV:   1     0.652975496564E+03    0.65298E+03   -0.62158E+04 24104   0.134E+03
DAV:   2    -0.215676342894E+03   -0.86865E+03   -0.84024E+03 30728   0.290E+02
DAV:   3    -0.276785174800E+03   -0.61109E+02   -0.60712E+02 27848   0.817E+01
DAV:   4    -0.277814215231E+03   -0.10290E+01   -0.10251E+01 28976   0.115E+01
DAV:   5    -0.277836295308E+03   -0.22080E-01   -0.22063E-01 28488   0.166E+00    0.389E+01
DAV:   6    -0.235633101175E+03    0.42203E+02   -0.18921E+02 28024   0.409E+01    0.109E+01
DAV:   7    -0.236565565435E+03   -0.93246E+00   -0.11270E+01 28024   0.112E+01    0.680E+00
DAV:   8    -0.236410476273E+03    0.15509E+00   -0.11096E+00 28560   0.390E+00    0.359E+00
DAV:   9    -0.236360809397E+03    0.49667E-01   -0.35391E-01 28976   0.260E+00    0.836E-01
DAV:  10    -0.236346726461E+03    0.14083E-01   -0.10872E-01 28376   0.119E+00    0.401E-01
DAV:  11    -0.236344759410E+03    0.19671E-02   -0.14069E-02 29272   0.429E-01    0.199E-01
DAV:  12    -0.236345512124E+03   -0.75271E-03   -0.32107E-03 29792   0.234E-01    0.865E-02
DAV:  13    -0.236345229042E+03    0.28308E-03   -0.89780E-04 28456   0.129E-01    0.442E-02
DAV:  14    -0.236345200651E+03    0.28391E-04   -0.15510E-04 29328   0.545E-02    0.241E-02
DAV:  15    -0.236345211462E+03   -0.10811E-04   -0.88078E-05 29688   0.343E-02    0.110E-02
DAV:  16    -0.236345206195E+03    0.52672E-05   -0.97031E-06 28168   0.145E-02    0.647E-03
DAV:  17    -0.236345206162E+03    0.33075E-07   -0.67779E-06 27528   0.937E-03
   1 F= -.23634521E+03 E0= -.23634521E+03  d E =-.236345E+03  mag=     0.0003
       N       E                     dE             d eps       ncg     rms          rms(c)
DAV:   1    -0.232385099835E+03    0.39601E+01   -0.68808E+02 23936   0.101E+02    0.472E+00
DAV:   2    -0.235914651427E+03   -0.35296E+01   -0.48855E+01 26960   0.211E+01    0.378E+00
DAV:   3    -0.235524940198E+03    0.38971E+00   -0.14919E+00 29072   0.551E+00    0.229E+00
DAV:   4    -0.235349594565E+03    0.17535E+00   -0.83222E-01 28744   0.402E+00    0.787E-01
DAV:   5    -0.235344495735E+03    0.50988E-02   -0.22592E-01 29840   0.217E+00    0.714E-01
DAV:   6    -0.235340438823E+03    0.40569E-02   -0.10498E-01 28304   0.115E+00    0.422E-01
DAV:   7    -0.235336715302E+03    0.37235E-02   -0.25269E-02 28800   0.621E-01    0.136E-01
DAV:   8    -0.235336145834E+03    0.56947E-03   -0.26411E-03 30224   0.261E-01    0.531E-02
DAV:   9    -0.235336209327E+03   -0.63493E-04   -0.12424E-03 31232   0.142E-01    0.322E-02
DAV:  10    -0.235336211602E+03   -0.22751E-05   -0.22210E-04 28232   0.616E-02    0.158E-02
DAV:  11    -0.235336217924E+03   -0.63219E-05   -0.53192E-05 27800   0.245E-02    0.125E-02
DAV:  12    -0.235336216170E+03    0.17544E-05   -0.18938E-05 28312   0.156E-02    0.351E-03
DAV:  13    -0.235336216419E+03   -0.24939E-06   -0.25656E-06 17880   0.702E-03
   2 F= -.23533622E+03 E0= -.23533622E+03  d E =0.100899E+01  mag=     0.0000
       N       E                     dE             d eps       ncg     rms          rms(c)
DAV:   1    -0.237165532099E+03   -0.18293E+01   -0.19679E+02 23936   0.544E+01    0.257E+00
DAV:   2    -0.237955440105E+03   -0.78991E+00   -0.12182E+01 28384   0.119E+01    0.219E+00
DAV:   3    -0.237844027222E+03    0.11141E+00   -0.56981E-01 28864   0.332E+00    0.138E+00
DAV:   4    -0.237789789508E+03    0.54238E-01   -0.30732E-01 28504   0.204E+00    0.516E-01
DAV:   5    -0.237782708538E+03    0.70810E-02   -0.42118E-02 30416   0.109E+00    0.342E-01
DAV:   6    -0.237783307122E+03   -0.59858E-03   -0.45736E-02 27592   0.738E-01    0.267E-01
DAV:   7    -0.237781834861E+03    0.14723E-02   -0.76901E-03 28136   0.323E-01    0.987E-02
DAV:   8    -0.237781720963E+03    0.11390E-03   -0.21477E-03 28824   0.167E-01    0.438E-02
DAV:   9    -0.237781692256E+03    0.28707E-04   -0.29034E-04 31168   0.811E-02    0.280E-02
DAV:  10    -0.237781691447E+03    0.80903E-06   -0.15722E-04 28096   0.429E-02    0.101E-02
DAV:  11    -0.237781694029E+03   -0.25822E-05   -0.25029E-05 27880   0.173E-02    0.708E-03
DAV:  12    -0.237781694344E+03   -0.31484E-06   -0.34247E-06 21616   0.769E-03
   3 F= -.23778169E+03 E0= -.23778169E+03  d E =-.143649E+01  mag=     0.0000
       N       E                     dE             d eps       ncg     rms          rms(c)
DAV:   1    -0.237842162466E+03   -0.60468E-01   -0.68981E+01 23936   0.307E+01    0.170E+00
DAV:   2    -0.238009360953E+03   -0.16720E+00   -0.27925E+00 27184   0.566E+00    0.136E+00
DAV:   3    -0.237964062676E+03    0.45298E-01   -0.89276E-02 28960   0.129E+00    0.725E-01
DAV:   4    -0.237950789478E+03    0.13273E-01   -0.70283E-02 27832   0.941E-01    0.223E-01
DAV:   5    -0.237950447032E+03    0.34245E-03   -0.12867E-02 29792   0.447E-01    0.118E-01
DAV:   6    -0.237950496942E+03   -0.49909E-04   -0.22840E-03 28200   0.167E-01    0.744E-02
DAV:   7    -0.237950442704E+03    0.54237E-04   -0.29303E-04 28360   0.700E-02    0.376E-02
DAV:   8    -0.237950432822E+03    0.98821E-05   -0.75685E-05 28760   0.412E-02    0.178E-02
DAV:   9    -0.237950429918E+03    0.29048E-05   -0.44674E-05 28120   0.258E-02    0.657E-03
DAV:  10    -0.237950430600E+03   -0.68243E-06   -0.11205E-05 26160   0.120E-02    0.407E-03
DAV:  11    -0.237950430478E+03    0.12154E-06   -0.11745E-06 15640   0.465E-03
   4 F= -.23795043E+03 E0= -.23795043E+03  d E =-.168736E+00  mag=     0.0000
       N       E                     dE             d eps       ncg     rms          rms(c)
DAV:   1    -0.237993321137E+03   -0.42891E-01   -0.76019E+00 23968   0.102E+01    0.572E-01
DAV:   2    -0.238010506427E+03   -0.17185E-01   -0.29819E-01 27416   0.184E+00    0.430E-01
DAV:   3    -0.238005549050E+03    0.49574E-02   -0.10063E-02 29104   0.422E-01    0.212E-01
DAV:   4    -0.238004420360E+03    0.11287E-02   -0.55123E-03 27872   0.265E-01    0.573E-02
DAV:   5    -0.238004424232E+03   -0.38720E-05   -0.95713E-04 29232   0.118E-01    0.345E-02
DAV:   6    -0.238004423567E+03    0.66574E-06   -0.12327E-04 28600   0.428E-02    0.217E-02
DAV:   7    -0.238004417587E+03    0.59797E-05   -0.20757E-05 27728   0.185E-02    0.981E-03
DAV:   8    -0.238004416574E+03    0.10130E-05   -0.75755E-06 29024   0.128E-02    0.329E-03
DAV:   9    -0.238004416792E+03   -0.21830E-06   -0.42293E-06 25184   0.742E-03
   5 F= -.23800442E+03 E0= -.23800442E+03  d E =-.222722E+00  mag=     0.0000
       N       E                     dE             d eps       ncg     rms          rms(c)
DAV:   1    -0.238070121651E+03   -0.65705E-01   -0.16203E+01 23936   0.140E+01    0.630E-01
DAV:   2    -0.238082080846E+03   -0.11959E-01   -0.27617E-01 28624   0.169E+00    0.472E-01
DAV:   3    -0.238075204869E+03    0.68760E-02   -0.10276E-02 28080   0.465E-01    0.259E-01
DAV:   4    -0.238073393079E+03    0.18118E-02   -0.13513E-02 28112   0.427E-01    0.921E-02
DAV:   5    -0.238073340661E+03    0.52418E-04   -0.24032E-03 27912   0.204E-01    0.548E-02
DAV:   6    -0.238073358717E+03   -0.18056E-04   -0.53779E-04 27664   0.749E-02    0.292E-02
DAV:   7    -0.238073349102E+03    0.96148E-05   -0.37704E-05 27400   0.243E-02    0.180E-02
DAV:   8    -0.238073351044E+03   -0.19417E-05   -0.35608E-05 28616   0.224E-02    0.122E-02
DAV:   9    -0.238073348074E+03    0.29706E-05   -0.74776E-06 29544   0.129E-02    0.634E-03
DAV:  10    -0.238073347784E+03    0.28962E-06   -0.75250E-06 26240   0.924E-03
   6 F= -.23807335E+03 E0= -.23807335E+03  d E =-.689310E-01  mag=     0.0000
       N       E                     dE             d eps       ncg     rms          rms(c)
DAV:   1    -0.238076334656E+03   -0.29866E-02   -0.11887E+00 23968   0.381E+00    0.172E-01
DAV:   2    -0.238077203743E+03   -0.86909E-03   -0.20306E-02 28640   0.458E-01    0.127E-01
DAV:   3    -0.238076699392E+03    0.50435E-03   -0.76240E-04 28112   0.127E-01    0.679E-02
DAV:   4    -0.238076577222E+03    0.12217E-03   -0.91016E-04 28152   0.110E-01    0.236E-02
DAV:   5    -0.238076574465E+03    0.27564E-05   -0.15342E-04 28360   0.519E-02    0.141E-02
DAV:   6    -0.238076575826E+03   -0.13601E-05   -0.35203E-05 27584   0.193E-02    0.778E-03
DAV:   7    -0.238076575127E+03    0.69850E-06   -0.23573E-06 19176   0.646E-03
   7 F= -.23807658E+03 E0= -.23807658E+03  d E =-.721583E-01  mag=    -0.0000
       N       E                     dE             d eps       ncg     rms          rms(c)
DAV:   1    -0.238072687248E+03    0.38886E-02   -0.73255E+00 23936   0.104E+01    0.546E-01
DAV:   2    -0.238099371986E+03   -0.26685E-01   -0.38390E-01 26304   0.197E+00    0.332E-01
DAV:   3    -0.238097126829E+03    0.22452E-02   -0.85892E-03 29072   0.417E-01    0.177E-01
DAV:   4    -0.238096687173E+03    0.43966E-03   -0.51228E-03 28640   0.278E-01    0.708E-02
DAV:   5    -0.238096650747E+03    0.36426E-04   -0.85039E-04 28864   0.121E-01    0.464E-02
DAV:   6    -0.238096647532E+03    0.32149E-05   -0.40349E-04 27968   0.654E-02    0.216E-02
DAV:   7    -0.238096640785E+03    0.67476E-05   -0.30123E-05 29744   0.270E-02    0.110E-02
DAV:   8    -0.238096640840E+03   -0.55640E-07   -0.30303E-05 29968   0.206E-02    0.722E-03
DAV:   9    -0.238096639986E+03    0.85470E-06   -0.42925E-06 23568   0.871E-03
   8 F= -.23809664E+03 E0= -.23809664E+03  d E =-.200649E-01  mag=     0.0000
       N       E                     dE             d eps       ncg     rms          rms(c)
DAV:   1    -0.238096789640E+03   -0.14880E-03   -0.19384E-01 24000   0.168E+00    0.890E-02
DAV:   2    -0.238097480278E+03   -0.69064E-03   -0.99523E-03 26176   0.318E-01    0.534E-02
DAV:   3    -0.238097423836E+03    0.56442E-04   -0.22025E-04 29088   0.665E-02    0.282E-02
DAV:   4    -0.238097413855E+03    0.99801E-05   -0.12375E-04 28688   0.435E-02    0.109E-02
DAV:   5    -0.238097413648E+03    0.20700E-06   -0.20375E-05 28736   0.186E-02    0.711E-03
DAV:   6    -0.238097413979E+03   -0.33070E-06   -0.90870E-06 26480   0.985E-03
   9 F= -.23809741E+03 E0= -.23809741E+03  d E =-.208389E-01  mag=     0.0000
       N       E                     dE             d eps       ncg     rms          rms(c)
DAV:   1    -0.238108205316E+03   -0.10792E-01   -0.35919E+00 23936   0.673E+00    0.317E-01
DAV:   2    -0.238111849809E+03   -0.36445E-02   -0.71711E-02 28080   0.879E-01    0.210E-01
DAV:   3    -0.238110686851E+03    0.11630E-02   -0.24676E-03 29056   0.217E-01    0.121E-01
DAV:   4    -0.238110308007E+03    0.37884E-03   -0.31248E-03 27904   0.193E-01    0.517E-02
DAV:   5    -0.238110277602E+03    0.30405E-04   -0.47211E-04 28160   0.892E-02    0.349E-02
DAV:   6    -0.238110275244E+03    0.23582E-05   -0.23143E-04 28208   0.519E-02    0.180E-02
DAV:   7    -0.238110272920E+03    0.23240E-05   -0.22197E-05 28688   0.190E-02    0.935E-03
DAV:   8    -0.238110273091E+03   -0.17127E-06   -0.10356E-05 28176   0.115E-02    0.432E-03
DAV:   9    -0.238110272863E+03    0.22796E-06   -0.96535E-07 15232   0.470E-03
  10 F= -.23811027E+03 E0= -.23811027E+03  d E =-.128589E-01  mag=     0.0000
       N       E                     dE             d eps       ncg     rms          rms(c)
DAV:   1    -0.238110283652E+03   -0.10561E-04   -0.39373E-03 25312   0.223E-01    0.103E-02
DAV:   2    -0.238110288212E+03   -0.45600E-05   -0.81720E-05 28336   0.299E-02    0.734E-03
DAV:   3    -0.238110286922E+03    0.12902E-05   -0.26348E-06 20880   0.749E-03    0.433E-03
DAV:   4    -0.238110286609E+03    0.31254E-06   -0.44849E-06 25600   0.739E-03
  11 F= -.23811029E+03 E0= -.23811029E+03  d E =-.128726E-01  mag=    -0.0000
       N       E                     dE             d eps       ncg     rms          rms(c)
DAV:   1    -0.238111913280E+03   -0.16264E-02   -0.27453E+00 23936   0.606E+00    0.317E-01
DAV:   2    -0.238118428463E+03   -0.65152E-02   -0.97731E-02 26512   0.995E-01    0.178E-01
DAV:   3    -0.238117631595E+03    0.79687E-03   -0.21878E-03 29104   0.189E-01    0.921E-02
DAV:   4    -0.238117435130E+03    0.19646E-03   -0.12160E-03 27904   0.129E-01    0.269E-02
DAV:   5    -0.238117446784E+03   -0.11654E-04   -0.22106E-04 27232   0.558E-02    0.207E-02
DAV:   6    -0.238117445796E+03    0.98852E-06   -0.40753E-05 28576   0.220E-02    0.104E-02
DAV:   7    -0.238117445470E+03    0.32537E-06   -0.45643E-06 26240   0.982E-03
  12 F= -.23811745E+03 E0= -.23811745E+03  d E =-.715886E-02  mag=     0.0000
       N       E                     dE             d eps       ncg     rms          rms(c)
DAV:   1    -0.238117447509E+03   -0.17136E-05   -0.18650E-02 24768   0.500E-01    0.262E-02
DAV:   2    -0.238117492912E+03   -0.45403E-04   -0.66954E-04 26528   0.823E-02    0.146E-02
DAV:   3    -0.238117487908E+03    0.50041E-05   -0.15553E-05 29104   0.157E-02    0.755E-03
DAV:   4    -0.238117486838E+03    0.10703E-05   -0.76757E-06 27936   0.105E-02    0.221E-03
DAV:   5    -0.238117487012E+03   -0.17403E-06   -0.13823E-06 16352   0.453E-03
  13 F= -.23811749E+03 E0= -.23811749E+03  d E =-.720040E-02  mag=    -0.0000
       N       E                     dE             d eps       ncg     rms          rms(c)
DAV:   1    -0.238119812463E+03   -0.23256E-02   -0.98490E-01 23936   0.368E+00    0.191E-01
DAV:   2    -0.238120872147E+03   -0.10597E-02   -0.23860E-02 27072   0.517E-01    0.118E-01
DAV:   3    -0.238120489829E+03    0.38232E-03   -0.81950E-04 29056   0.124E-01    0.608E-02
DAV:   4    -0.238120402160E+03    0.87669E-04   -0.58615E-04 28304   0.865E-02    0.220E-02
DAV:   5    -0.238120398714E+03    0.34461E-05   -0.90850E-05 28144   0.398E-02    0.132E-02
DAV:   6    -0.238120399106E+03   -0.39257E-06   -0.26249E-05 28080   0.170E-02    0.708E-03
DAV:   7    -0.238120398491E+03    0.61560E-06   -0.20783E-06 17648   0.723E-03
  14 F= -.23812040E+03 E0= -.23812040E+03  d E =-.291148E-02  mag=     0.0000
       N       E                     dE             d eps       ncg     rms          rms(c)
DAV:   1    -0.238120403100E+03   -0.39935E-05   -0.31183E-03 25168   0.208E-01    0.112E-02
DAV:   2    -0.238120406464E+03   -0.33646E-05   -0.78540E-05 27120   0.298E-02    0.628E-03
DAV:   3    -0.238120405353E+03    0.11110E-05   -0.26779E-06 22320   0.714E-03    0.342E-03
DAV:   4    -0.238120404997E+03    0.35600E-06   -0.17659E-06 16224   0.520E-03
  15 F= -.23812040E+03 E0= -.23812040E+03  d E =-.291799E-02  mag=     0.0000
       N       E                     dE             d eps       ncg     rms          rms(c)
DAV:   1    -0.238119944086E+03    0.46127E-03   -0.36438E-01 23936   0.233E+00    0.134E-01
DAV:   2    -0.238121765540E+03   -0.18215E-02   -0.24774E-02 25632   0.485E-01    0.738E-02
DAV:   3    -0.238121713536E+03    0.52004E-04   -0.49205E-04 29120   0.866E-02    0.419E-02
DAV:   4    -0.238121689968E+03    0.23568E-04   -0.14502E-04 28688   0.456E-02    0.150E-02
DAV:   5    -0.238121686879E+03    0.30894E-05   -0.22168E-05 31936   0.228E-02    0.834E-03
DAV:   6    -0.238121686997E+03   -0.11837E-06   -0.12587E-05 28208   0.129E-02    0.401E-03
DAV:   7    -0.238121686747E+03    0.25007E-06   -0.11202E-06 15696   0.496E-03
  16 F= -.23812169E+03 E0= -.23812169E+03  d E =-.128175E-02  mag=     0.0000
       N       E                     dE             d eps       ncg     rms          rms(c)
DAV:   1    -0.238121686008E+03    0.98894E-06   -0.47652E-04 25536   0.842E-02    0.490E-03
DAV:   2    -0.238121688272E+03   -0.22638E-05   -0.32664E-05 26336   0.179E-02    0.259E-03
DAV:   3    -0.238121688171E+03    0.10112E-06   -0.80937E-07 20384   0.350E-03
  17 F= -.23812169E+03 E0= -.23812169E+03  d E =-.128317E-02  mag=    -0.0000
       N       E                     dE             d eps       ncg     rms          rms(c)
DAV:   1    -0.238122451335E+03   -0.76306E-03   -0.43641E-01 23936   0.242E+00    0.126E-01
DAV:   2    -0.238122849378E+03   -0.39804E-03   -0.92942E-03 27152   0.316E-01    0.720E-02
DAV:   3    -0.238122704152E+03    0.14523E-03   -0.33895E-04 29040   0.821E-02    0.346E-02
DAV:   4    -0.238122679509E+03    0.24643E-04   -0.19996E-04 28400   0.519E-02    0.132E-02
DAV:   5    -0.238122679335E+03    0.17494E-06   -0.28522E-05 29152   0.225E-02    0.730E-03
DAV:   6    -0.238122679757E+03   -0.42238E-06   -0.72077E-06 26048   0.920E-03
  18 F= -.23812268E+03 E0= -.23812268E+03  d E =-.991586E-03  mag=    -0.0000
       N       E                     dE             d eps       ncg     rms          rms(c)
DAV:   1    -0.238122679964E+03   -0.62984E-06   -0.18292E-04 25760   0.498E-02    0.383E-03
DAV:   2    -0.238122680320E+03   -0.35594E-06   -0.41610E-06 22384   0.672E-03
  19 F= -.23812268E+03 E0= -.23812268E+03  d E =-.992149E-03  mag=    -0.0000
       N       E                     dE             d eps       ncg     rms          rms(c)
DAV:   1    -0.238122626761E+03    0.53203E-04   -0.17826E-01 23968   0.158E+00    0.682E-02
DAV:   2    -0.238123128344E+03   -0.50158E-03   -0.65897E-03 26272   0.261E-01    0.435E-02
DAV:   3    -0.238123086255E+03    0.42089E-04   -0.12833E-04 29184   0.463E-02    0.251E-02
DAV:   4    -0.238123070394E+03    0.15861E-04   -0.89782E-05 27760   0.366E-02    0.759E-03
DAV:   5    -0.238123070855E+03   -0.46080E-06   -0.20286E-05 27408   0.171E-02    0.645E-03
DAV:   6    -0.238123070587E+03    0.26768E-06   -0.42753E-06 25920   0.700E-03
  20 F= -.23812307E+03 E0= -.23812307E+03  d E =-.390267E-03  mag=    -0.0000
       N       E                     dE             d eps       ncg     rms          rms(c)
DAV:   1    -0.238123070647E+03    0.20791E-06   -0.54345E-04 24976   0.871E-02    0.351E-03
DAV:   2    -0.238123072043E+03   -0.13964E-05   -0.19081E-05 26192   0.141E-02    0.250E-03
DAV:   3    -0.238123071913E+03    0.12975E-06   -0.37940E-07 16912   0.261E-03
  21 F= -.23812307E+03 E0= -.23812307E+03  d E =-.391593E-03  mag=     0.0000
       N       E                     dE             d eps       ncg     rms          rms(c)
DAV:   1    -0.238123178736E+03   -0.10669E-03   -0.49786E-02 23968   0.801E-01    0.354E-02
DAV:   2    -0.238123233168E+03   -0.54433E-04   -0.10229E-03 27696   0.105E-01    0.252E-02
DAV:   3    -0.238123212300E+03    0.20869E-04   -0.38789E-05 28928   0.297E-02    0.124E-02
DAV:   4    -0.238123207038E+03    0.52614E-05   -0.31479E-05 28608   0.228E-02    0.444E-03
DAV:   5    -0.238123207061E+03   -0.22855E-07   -0.69783E-06 26352   0.103E-02
  22 F= -.23812321E+03 E0= -.23812321E+03  d E =-.135148E-03  mag=    -0.0000
       N       E                     dE             d eps       ncg     rms          rms(c)
DAV:   1    -0.238123206900E+03    0.13797E-06   -0.68228E-06 25024   0.962E-03    0.175E-03
DAV:   2    -0.238123206857E+03    0.43814E-07   -0.28982E-07 15232   0.211E-03
  23 F= -.23812321E+03 E0= -.23812321E+03  d E =-.134943E-03  mag=    -0.0000
       N       E                     dE             d eps       ncg     rms          rms(c)
DAV:   1    -0.238123215718E+03   -0.88179E-05   -0.24745E-02 23968   0.577E-01    0.224E-02
DAV:   2    -0.238123271015E+03   -0.55297E-04   -0.73477E-04 27296   0.890E-02    0.158E-02
DAV:   3    -0.238123265139E+03    0.58762E-05   -0.20510E-05 29008   0.184E-02    0.966E-03
DAV:   4    -0.238123262658E+03    0.24803E-05   -0.14691E-05 27696   0.137E-02    0.355E-03
DAV:   5    -0.238123262527E+03    0.13100E-06   -0.22986E-06 19232   0.661E-03
  24 F= -.23812326E+03 E0= -.23812326E+03  d E =-.556709E-04  mag=     0.0000
       N       E                     dE             d eps       ncg     rms          rms(c)
DAV:   1    -0.238123262866E+03   -0.20765E-06   -0.51358E-04 24192   0.831E-02    0.312E-03
DAV:   2    -0.238123263855E+03   -0.98871E-06   -0.14555E-05 26944   0.127E-02    0.240E-03
DAV:   3    -0.238123263724E+03    0.13118E-06   -0.48561E-07 15968   0.285E-03
  25 F= -.23812326E+03 E0= -.23812326E+03  d E =-.568671E-04  mag=    -0.0000
       N       E                     dE             d eps       ncg     rms          rms(c)
DAV:   1    -0.238123276058E+03   -0.12203E-04   -0.80256E-03 23968   0.317E-01    0.133E-02
DAV:   2    -0.238123288910E+03   -0.12852E-04   -0.18167E-04 27552   0.441E-02    0.895E-03
DAV:   3    -0.238123286816E+03    0.20946E-05   -0.53637E-06 27904   0.993E-03    0.479E-03
DAV:   4    -0.238123286402E+03    0.41332E-06   -0.41940E-06 25824   0.744E-03
  26 F= -.23812329E+03 E0= -.23812329E+03  d E =-.226786E-04  mag=     0.0000
       N       E                     dE             d eps       ncg     rms          rms(c)
DAV:   1    -0.238123286306E+03    0.50915E-06   -0.78299E-05 24736   0.317E-02    0.150E-03
DAV:   2    -0.238123286407E+03   -0.10053E-06   -0.21824E-06 19600   0.495E-03
  27 F= -.23812329E+03 E0= -.23812329E+03  d E =-.226833E-04  mag=     0.0000
