       N       E                     dE             d eps       ncg     rms          rms(c)
DAV:   1     0.115262825664E+04    0.11526E+04   -0.64747E+04 43152   0.138E+03
DAV:   2    -0.115170704704E+03   -0.12678E+04   -0.11933E+04 59824   0.414E+02
DAV:   3    -0.276465633047E+03   -0.16129E+03   -0.15923E+03 68088   0.157E+02
DAV:   4    -0.282002833149E+03   -0.55372E+01   -0.55079E+01 67936   0.410E+01
DAV:   5    -0.282143594828E+03   -0.14076E+00   -0.14047E+00 69960   0.673E+00    0.391E+01
DAV:   6    -0.226757405496E+03    0.55386E+02   -0.26143E+02 73264   0.639E+01    0.129E+01
DAV:   7    -0.227159355705E+03   -0.40195E+00   -0.32514E+01 71104   0.278E+01    0.732E+00
DAV:   8    -0.226533459036E+03    0.62590E+00   -0.21594E+00 64744   0.846E+00    0.464E+00
DAV:   9    -0.226389427913E+03    0.14403E+00   -0.16476E+00 62704   0.461E+00    0.149E+00
DAV:  10    -0.226356417570E+03    0.33010E-01   -0.19731E-01 66344   0.286E+00    0.728E-01
DAV:  11    -0.226356382259E+03    0.35311E-04   -0.10649E-01 62424   0.121E+00    0.560E-01
DAV:  12    -0.226353883367E+03    0.24989E-02   -0.47878E-02 66136   0.815E-01    0.312E-01
DAV:  13    -0.226353724794E+03    0.15857E-03   -0.71784E-03 69776   0.378E-01    0.122E-01
DAV:  14    -0.226354526484E+03   -0.80169E-03   -0.23421E-03 63880   0.234E-01    0.647E-02
DAV:  15    -0.226354706212E+03   -0.17973E-03   -0.36982E-04 65120   0.119E-01    0.343E-02
DAV:  16    -0.226354755846E+03   -0.49633E-04   -0.17402E-04 68712   0.738E-02    0.180E-02
DAV:  17    -0.226354764548E+03   -0.87025E-05   -0.40132E-05 66440   0.356E-02    0.971E-03
DAV:  18    -0.226354767483E+03   -0.29348E-05   -0.14006E-05 66112   0.192E-02    0.483E-03
DAV:  19    -0.226354768714E+03   -0.12306E-05   -0.36734E-06 42008   0.123E-02    0.256E-03
DAV:  20    -0.226354769158E+03   -0.44427E-06   -0.19227E-06 28360   0.703E-03
   1 F= -.22635477E+03 E0= -.22635477E+03  d E =-.226355E+03  mag=    -0.0000
       N       E                     dE             d eps       ncg     rms          rms(c)
DAV:   1    -0.203919740298E+03    0.22435E+02   -0.21867E+03 46592   0.204E+02    0.117E+01
DAV:   2    -0.230512253987E+03   -0.26593E+02   -0.29737E+02 57152   0.604E+01    0.901E+00
DAV:   3    -0.229526190836E+03    0.98606E+00   -0.10005E+01 68024   0.166E+01    0.583E+00
DAV:   4    -0.228594441052E+03    0.93175E+00   -0.35460E+00 69936   0.895E+00    0.195E+00
DAV:   5    -0.228586439046E+03    0.80020E-02   -0.89794E-01 64000   0.449E+00    0.137E+00
DAV:   6    -0.228567129357E+03    0.19310E-01   -0.23025E-01 69080   0.217E+00    0.621E-01
DAV:   7    -0.228568519916E+03   -0.13906E-02   -0.33479E-02 66208   0.102E+00    0.374E-01
DAV:   8    -0.228569520990E+03   -0.10011E-02   -0.14213E-02 65872   0.648E-01    0.134E-01
DAV:   9    -0.228570059631E+03   -0.53864E-03   -0.36908E-03 67984   0.316E-01    0.776E-02
DAV:  10    -0.228570320244E+03   -0.26061E-03   -0.90505E-04 66840   0.167E-01    0.493E-02
DAV:  11    -0.228570414220E+03   -0.93976E-04   -0.23819E-04 68384   0.998E-02    0.279E-02
DAV:  12    -0.228570492853E+03   -0.78634E-04   -0.23282E-04 66160   0.914E-02    0.162E-02
DAV:  13    -0.228570507670E+03   -0.14817E-04   -0.48483E-05 65176   0.431E-02    0.868E-03
DAV:  14    -0.228570512482E+03   -0.48125E-05   -0.18643E-05 65304   0.211E-02    0.445E-03
DAV:  15    -0.228570515457E+03   -0.29746E-05   -0.78145E-06 50592   0.175E-02    0.278E-03
DAV:  16    -0.228570516008E+03   -0.55054E-06   -0.15467E-06 34360   0.817E-03
   2 F= -.22857052E+03 E0= -.22857052E+03  d E =-.221575E+01  mag=    -0.0000
       N       E                     dE             d eps       ncg     rms          rms(c)
DAV:   1    -0.226762259048E+03    0.18083E+01   -0.40049E+02 48848   0.955E+01    0.562E+00
DAV:   2    -0.230905641264E+03   -0.41434E+01   -0.49351E+01 46880   0.263E+01    0.375E+00
DAV:   3    -0.230768803024E+03    0.13684E+00   -0.22453E+00 70024   0.740E+00    0.236E+00
DAV:   4    -0.230646188979E+03    0.12261E+00   -0.77787E-01 68504   0.390E+00    0.909E-01
DAV:   5    -0.230636574883E+03    0.96141E-02   -0.15352E-01 65192   0.202E+00    0.647E-01
DAV:   6    -0.230633549489E+03    0.30254E-02   -0.65669E-02 64992   0.948E-01    0.263E-01
DAV:   7    -0.230634157662E+03   -0.60817E-03   -0.86152E-03 65472   0.523E-01    0.161E-01
DAV:   8    -0.230634515400E+03   -0.35774E-03   -0.22354E-03 67984   0.264E-01    0.651E-02
DAV:   9    -0.230634729716E+03   -0.21432E-03   -0.68499E-04 68120   0.149E-01    0.364E-02
DAV:  10    -0.230634766601E+03   -0.36884E-04   -0.13649E-04 66936   0.639E-02    0.181E-02
DAV:  11    -0.230634787163E+03   -0.20562E-04   -0.58901E-05 67168   0.431E-02    0.113E-02
DAV:  12    -0.230634790507E+03   -0.33441E-05   -0.11441E-05 64184   0.205E-02    0.723E-03
DAV:  13    -0.230634791483E+03   -0.97571E-06   -0.79150E-06 58432   0.131E-02
   3 F= -.23063479E+03 E0= -.23063479E+03  d E =-.428002E+01  mag=    -0.0000
       N       E                     dE             d eps       ncg     rms          rms(c)
DAV:   1    -0.229049529831E+03    0.15853E+01   -0.43596E+02 46592   0.894E+01    0.422E+00
DAV:   2    -0.231511371787E+03   -0.24618E+01   -0.32081E+01 57712   0.253E+01    0.268E+00
DAV:   3    -0.231432003527E+03    0.79368E-01   -0.12390E+00 68504   0.593E+00    0.164E+00
DAV:   4    -0.231369615356E+03    0.62388E-01   -0.35842E-01 66824   0.299E+00    0.681E-01
DAV:   5    -0.231365311164E+03    0.43042E-02   -0.85819E-02 63200   0.142E+00    0.381E-01
DAV:   6    -0.231365576921E+03   -0.26576E-03   -0.26700E-02 67328   0.750E-01    0.197E-01
DAV:   7    -0.231365779651E+03   -0.20273E-03   -0.45599E-03 61464   0.354E-01    0.116E-01
DAV:   8    -0.231366020898E+03   -0.24125E-03   -0.18451E-03 60952   0.241E-01    0.467E-02
DAV:   9    -0.231366069883E+03   -0.48985E-04   -0.40808E-04 65304   0.992E-02    0.255E-02
DAV:  10    -0.231366084751E+03   -0.14869E-04   -0.88311E-05 63664   0.502E-02    0.144E-02
DAV:  11    -0.231366088312E+03   -0.35609E-05   -0.31633E-05 62440   0.247E-02    0.831E-03
DAV:  12    -0.231366089778E+03   -0.14658E-05   -0.50548E-06 48128   0.141E-02    0.485E-03
DAV:  13    -0.231366089896E+03   -0.11818E-06   -0.16402E-06 33976   0.860E-03
   4 F= -.23136609E+03 E0= -.23136609E+03  d E =-.731298E+00  mag=     0.0000
       N       E                     dE             d eps       ncg     rms          rms(c)
DAV:   1    -0.231323846987E+03    0.42243E-01   -0.46269E+01 46592   0.290E+01    0.132E+00
DAV:   2    -0.231594739598E+03   -0.27089E+00   -0.34641E+00 58256   0.789E+00    0.101E+00
DAV:   3    -0.231580053841E+03    0.14686E-01   -0.12548E-01 63336   0.205E+00    0.602E-01
DAV:   4    -0.231570565132E+03    0.94887E-02   -0.57348E-02 64448   0.107E+00    0.207E-01
DAV:   5    -0.231570299443E+03    0.26569E-03   -0.10642E-02 64080   0.487E-01    0.131E-01
DAV:   6    -0.231570199489E+03    0.99954E-04   -0.30596E-03 66040   0.238E-01    0.623E-02
DAV:   7    -0.231570226178E+03   -0.26689E-04   -0.56502E-04 63240   0.117E-01    0.348E-02
DAV:   8    -0.231570232108E+03   -0.59299E-05   -0.13136E-04 65096   0.638E-02    0.154E-02
DAV:   9    -0.231570236446E+03   -0.43388E-05   -0.37591E-05 66744   0.337E-02    0.912E-03
DAV:  10    -0.231570237135E+03   -0.68845E-06   -0.96771E-06 62056   0.160E-02
   5 F= -.23157024E+03 E0= -.23157024E+03  d E =-.935446E+00  mag=     0.0000
       N       E                     dE             d eps       ncg     rms          rms(c)
DAV:   1    -0.231359185309E+03    0.21105E+00   -0.17202E+02 48352   0.526E+01    0.259E+00
DAV:   2    -0.232173490307E+03   -0.81430E+00   -0.10483E+01 53600   0.139E+01    0.164E+00
DAV:   3    -0.232126260091E+03    0.47230E-01   -0.37596E-01 67464   0.343E+00    0.103E+00
DAV:   4    -0.232098428237E+03    0.27832E-01   -0.17888E-01 64560   0.182E+00    0.409E-01
DAV:   5    -0.232097529320E+03    0.89892E-03   -0.37382E-02 61320   0.899E-01    0.296E-01
DAV:   6    -0.232096910777E+03    0.61854E-03   -0.15959E-02 65192   0.477E-01    0.133E-01
DAV:   7    -0.232096918677E+03   -0.78996E-05   -0.21511E-03 64312   0.242E-01    0.794E-02
DAV:   8    -0.232096957154E+03   -0.38477E-04   -0.63980E-04 62432   0.118E-01    0.282E-02
DAV:   9    -0.232096981775E+03   -0.24621E-04   -0.14272E-04 67704   0.637E-02    0.186E-02
DAV:  10    -0.232096984759E+03   -0.29836E-05   -0.35876E-05 62312   0.322E-02    0.926E-03
DAV:  11    -0.232096986376E+03   -0.16170E-05   -0.16991E-05 61168   0.173E-02    0.490E-03
DAV:  12    -0.232096986537E+03   -0.16138E-06   -0.17683E-06 31080   0.106E-02
   6 F= -.23209699E+03 E0= -.23209699E+03  d E =-.526749E+00  mag=    -0.0000
       N       E                     dE             d eps       ncg     rms          rms(c)
DAV:   1    -0.232091198562E+03    0.57878E-02   -0.30865E+00 48368   0.706E+00    0.336E-01
DAV:   2    -0.232105544162E+03   -0.14346E-01   -0.18356E-01 54496   0.183E+00    0.222E-01
DAV:   3    -0.232104705849E+03    0.83831E-03   -0.65052E-03 68400   0.444E-01    0.135E-01
DAV:   4    -0.232104222583E+03    0.48327E-03   -0.25021E-03 68552   0.235E-01    0.486E-02
DAV:   5    -0.232104218651E+03    0.39327E-05   -0.57245E-04 61424   0.113E-01    0.335E-02
DAV:   6    -0.232104213576E+03    0.50747E-05   -0.20124E-04 67008   0.574E-02    0.168E-02
DAV:   7    -0.232104214296E+03   -0.72035E-06   -0.32768E-05 62544   0.293E-02    0.101E-02
DAV:   8    -0.232104215359E+03   -0.10630E-05   -0.10173E-05 59856   0.151E-02    0.378E-03
DAV:   9    -0.232104215868E+03   -0.50841E-06   -0.13452E-06 27896   0.871E-03
   7 F= -.23210422E+03 E0= -.23210422E+03  d E =-.533979E+00  mag=    -0.0000
       N       E                     dE             d eps       ncg     rms          rms(c)
DAV:   1    -0.231727935591E+03    0.37628E+00   -0.13180E+02 46592   0.496E+01    0.234E+00
DAV:   2    -0.232585493797E+03   -0.85756E+00   -0.10458E+01 49152   0.129E+01    0.152E+00
DAV:   3    -0.232559015162E+03    0.26479E-01   -0.39629E-01 67928   0.339E+00    0.101E+00
DAV:   4    -0.232534009073E+03    0.25006E-01   -0.13269E-01 64224   0.153E+00    0.397E-01
DAV:   5    -0.232533072813E+03    0.93626E-03   -0.31952E-02 61496   0.817E-01    0.290E-01
DAV:   6    -0.232532132236E+03    0.94058E-03   -0.11680E-02 64272   0.413E-01    0.115E-01
DAV:   7    -0.232532191748E+03   -0.59512E-04   -0.20420E-03 63672   0.219E-01    0.759E-02
DAV:   8    -0.232532231523E+03   -0.39774E-04   -0.45507E-04 68784   0.100E-01    0.290E-02
DAV:   9    -0.232532242878E+03   -0.11356E-04   -0.12968E-04 62368   0.500E-02    0.148E-02
DAV:  10    -0.232532246081E+03   -0.32026E-05   -0.26526E-05 60912   0.291E-02    0.825E-03
DAV:  11    -0.232532246812E+03   -0.73114E-06   -0.96605E-06 59944   0.139E-02
   8 F= -.23253225E+03 E0= -.23253225E+03  d E =-.428031E+00  mag=    -0.0000
       N       E                     dE             d eps       ncg     rms          rms(c)
DAV:   1    -0.232474006737E+03    0.58239E-01   -0.14842E+01 46592   0.167E+01    0.798E-01
DAV:   2    -0.232566041913E+03   -0.92035E-01   -0.11436E+00 52832   0.427E+00    0.490E-01
DAV:   3    -0.232563248800E+03    0.27931E-02   -0.41564E-02 67760   0.108E+00    0.310E-01
DAV:   4    -0.232560904448E+03    0.23444E-02   -0.11284E-02 65616   0.465E-01    0.117E-01
DAV:   5    -0.232560811418E+03    0.93029E-04   -0.26795E-03 63344   0.244E-01    0.755E-02
DAV:   6    -0.232560775850E+03    0.35568E-04   -0.88945E-04 65240   0.116E-01    0.349E-02
DAV:   7    -0.232560779701E+03   -0.38510E-05   -0.13908E-04 64808   0.603E-02    0.229E-02
DAV:   8    -0.232560783187E+03   -0.34856E-05   -0.40341E-05 68744   0.307E-02    0.731E-03
DAV:   9    -0.232560784598E+03   -0.14110E-05   -0.92405E-06 59840   0.146E-02    0.448E-03
DAV:  10    -0.232560784659E+03   -0.60640E-07   -0.14603E-06 28296   0.865E-03
   9 F= -.23256078E+03 E0= -.23256078E+03  d E =-.456569E+00  mag=     0.0000
       N       E                     dE             d eps       ncg     rms          rms(c)
DAV:   1    -0.232388801160E+03    0.17198E+00   -0.42902E+01 44800   0.301E+01    0.132E+00
DAV:   2    -0.232754734928E+03   -0.36593E+00   -0.42525E+00 48528   0.787E+00    0.824E-01
DAV:   3    -0.232752477555E+03    0.22574E-02   -0.16036E-01 67440   0.204E+00    0.551E-01
DAV:   4    -0.232745056009E+03    0.74215E-02   -0.35880E-02 67392   0.885E-01    0.212E-01
DAV:   5    -0.232745151228E+03   -0.95220E-04   -0.11527E-02 65440   0.466E-01    0.158E-01
DAV:   6    -0.232744849864E+03    0.30136E-03   -0.35210E-03 64056   0.254E-01    0.692E-02
DAV:   7    -0.232744905610E+03   -0.55747E-04   -0.93061E-04 65032   0.136E-01    0.413E-02
DAV:   8    -0.232744919023E+03   -0.13413E-04   -0.10928E-04 67568   0.611E-02    0.178E-02
DAV:   9    -0.232744926156E+03   -0.71328E-05   -0.64738E-05 62792   0.336E-02    0.112E-02
DAV:  10    -0.232744924903E+03    0.12528E-05   -0.96707E-06 56392   0.175E-02    0.669E-03
DAV:  11    -0.232744925086E+03   -0.18298E-06   -0.10133E-05 54496   0.114E-02    0.297E-03
DAV:  12    -0.232744925098E+03   -0.12550E-07   -0.89840E-07 26880   0.664E-03
  10 F= -.23274493E+03 E0= -.23274493E+03  d E =-.184140E+00  mag=    -0.0000
       N       E                     dE             d eps       ncg     rms          rms(c)
DAV:   1    -0.232741236343E+03    0.36887E-02   -0.77434E-01 45648   0.406E+00    0.180E-01
DAV:   2    -0.232747787153E+03   -0.65508E-02   -0.76566E-02 53280   0.106E+00    0.111E-01
DAV:   3    -0.232747726245E+03    0.60907E-04   -0.26806E-03 67520   0.266E-01    0.716E-02
DAV:   4    -0.232747607649E+03    0.11860E-03   -0.58277E-04 67800   0.116E-01    0.273E-02
DAV:   5    -0.232747607179E+03    0.47014E-06   -0.17164E-04 65320   0.591E-02    0.187E-02
DAV:   6    -0.232747604564E+03    0.26151E-05   -0.60260E-05 63208   0.328E-02    0.879E-03
DAV:   7    -0.232747605126E+03   -0.56144E-06   -0.12984E-05 63232   0.170E-02    0.575E-03
DAV:   8    -0.232747605149E+03   -0.22998E-07   -0.18604E-06 30840   0.851E-03
  11 F= -.23274761E+03 E0= -.23274761E+03  d E =-.186820E+00  mag=     0.0000
       N       E                     dE             d eps       ncg     rms          rms(c)
DAV:   1    -0.232739632447E+03    0.79727E-02   -0.12978E+01 47832   0.160E+01    0.746E-01
DAV:   2    -0.232833576075E+03   -0.93944E-01   -0.11465E+00 55136   0.424E+00    0.430E-01
DAV:   3    -0.232832426354E+03    0.11497E-02   -0.37658E-02 67344   0.102E+00    0.277E-01
DAV:   4    -0.232830919865E+03    0.15065E-02   -0.11024E-02 66272   0.486E-01    0.106E-01
DAV:   5    -0.232830886838E+03    0.33027E-04   -0.24031E-03 62560   0.234E-01    0.742E-02
DAV:   6    -0.232830860136E+03    0.26702E-04   -0.95772E-04 68864   0.121E-01    0.323E-02
DAV:   7    -0.232830868246E+03   -0.81101E-05   -0.12901E-04 64504   0.609E-02    0.195E-02
DAV:   8    -0.232830874152E+03   -0.59066E-05   -0.36937E-05 66440   0.313E-02    0.658E-03
DAV:   9    -0.232830875594E+03   -0.14418E-05   -0.45493E-06 49224   0.144E-02    0.324E-03
DAV:  10    -0.232830875968E+03   -0.37340E-06   -0.11274E-06 28296   0.725E-03
  12 F= -.23283088E+03 E0= -.23283088E+03  d E =-.832708E-01  mag=    -0.0000
       N       E                     dE             d eps       ncg     rms          rms(c)
DAV:   1    -0.232822787236E+03    0.80884E-02   -0.23317E+00 47856   0.679E+00    0.314E-01
DAV:   2    -0.232839644575E+03   -0.16857E-01   -0.20519E-01 54768   0.179E+00    0.181E-01
DAV:   3    -0.232839451225E+03    0.19335E-03   -0.67978E-03 67264   0.428E-01    0.116E-01
DAV:   4    -0.232839177866E+03    0.27336E-03   -0.18272E-03 66448   0.200E-01    0.435E-02
DAV:   5    -0.232839175227E+03    0.26390E-05   -0.40889E-04 62544   0.958E-02    0.299E-02
DAV:   6    -0.232839171330E+03    0.38966E-05   -0.15506E-04 69136   0.495E-02    0.135E-02
DAV:   7    -0.232839172563E+03   -0.12324E-05   -0.21651E-05 61600   0.247E-02    0.827E-03
DAV:   8    -0.232839173555E+03   -0.99254E-06   -0.65901E-06 52576   0.129E-02
  13 F= -.23283917E+03 E0= -.23283917E+03  d E =-.915684E-01  mag=     0.0000
       N       E                     dE             d eps       ncg     rms          rms(c)
DAV:   1    -0.232850943314E+03   -0.11771E-01   -0.14222E+01 46600   0.143E+01    0.803E-01
DAV:   2    -0.232882466662E+03   -0.31523E-01   -0.55257E-01 61936   0.388E+00    0.456E-01
DAV:   3    -0.232876915620E+03    0.55510E-02   -0.25145E-02 69312   0.944E-01    0.225E-01
DAV:   4    -0.232875714471E+03    0.12011E-02   -0.88981E-03 64392   0.419E-01    0.910E-02
DAV:   5    -0.232875651031E+03    0.63440E-04   -0.15519E-03 65040   0.203E-01    0.551E-02
DAV:   6    -0.232875654664E+03   -0.36330E-05   -0.56905E-04 67264   0.100E-01    0.296E-02
DAV:   7    -0.232875646089E+03    0.85750E-05   -0.60620E-05 65064   0.496E-02    0.161E-02
DAV:   8    -0.232875648427E+03   -0.23382E-05   -0.42920E-05 64472   0.305E-02    0.663E-03
DAV:   9    -0.232875648760E+03   -0.33263E-06   -0.92935E-06 59208   0.146E-02
  14 F= -.23287565E+03 E0= -.23287565E+03  d E =-.364752E-01  mag=     0.0000
       N       E                     dE             d eps       ncg     rms          rms(c)
DAV:   1    -0.232875689276E+03   -0.40849E-04   -0.30983E-02 49856   0.666E-01    0.367E-02
DAV:   2    -0.232875756228E+03   -0.66952E-04   -0.11600E-03 62152   0.180E-01    0.216E-02
DAV:   3    -0.232875742734E+03    0.13494E-04   -0.55455E-05 68824   0.428E-02    0.102E-02
DAV:   4    -0.232875739806E+03    0.29284E-05   -0.16927E-05 64704   0.191E-02    0.422E-03
DAV:   5    -0.232875739128E+03    0.67818E-06   -0.20174E-06 35832   0.895E-03
  15 F= -.23287574E+03 E0= -.23287574E+03  d E =-.365656E-01  mag=    -0.0000
       N       E                     dE             d eps       ncg     rms          rms(c)
DAV:   1    -0.232861911473E+03    0.13828E-01   -0.38761E+00 48152   0.919E+00    0.418E-01
DAV:   2    -0.232892159183E+03   -0.30248E-01   -0.36275E-01 51136   0.231E+00    0.216E-01
DAV:   3    -0.232892094843E+03    0.64341E-04   -0.12125E-02 68808   0.560E-01    0.136E-01
DAV:   4    -0.232891695407E+03    0.39944E-03   -0.23338E-03 65168   0.231E-01    0.462E-02
DAV:   5    -0.232891701496E+03   -0.60893E-05   -0.55307E-04 61368   0.111E-01    0.321E-02
DAV:   6    -0.232891703734E+03   -0.22381E-05   -0.17748E-04 69592   0.541E-02    0.168E-02
DAV:   7    -0.232891704967E+03   -0.12322E-05   -0.19963E-05 63384   0.248E-02    0.102E-02
DAV:   8    -0.232891706158E+03   -0.11918E-05   -0.87822E-06 61408   0.160E-02    0.278E-03
DAV:   9    -0.232891706457E+03   -0.29890E-06   -0.10501E-06 27352   0.768E-03
  16 F= -.23289171E+03 E0= -.23289171E+03  d E =-.159673E-01  mag=    -0.0000
       N       E                     dE             d eps       ncg     rms          rms(c)
DAV:   1    -0.232889956176E+03    0.17500E-02   -0.34095E-01 48552   0.273E+00    0.124E-01
DAV:   2    -0.232892619014E+03   -0.26628E-02   -0.31899E-02 51744   0.685E-01    0.640E-02
DAV:   3    -0.232892613700E+03    0.53138E-05   -0.10636E-03 68752   0.166E-01    0.403E-02
DAV:   4    -0.232892578315E+03    0.35386E-04   -0.20104E-04 65024   0.681E-02    0.136E-02
DAV:   5    -0.232892579154E+03   -0.83907E-06   -0.48073E-05 61568   0.327E-02    0.942E-03
DAV:   6    -0.232892579359E+03   -0.20495E-06   -0.15199E-05 64848   0.160E-02    0.496E-03
DAV:   7    -0.232892579485E+03   -0.12646E-06   -0.13428E-06 31616   0.764E-03
  17 F= -.23289258E+03 E0= -.23289258E+03  d E =-.168404E-01  mag=    -0.0000
       N       E                     dE             d eps       ncg     rms          rms(c)
DAV:   1    -0.232872558963E+03    0.20020E-01   -0.32901E+00 47232   0.888E+00    0.388E-01
DAV:   2    -0.232902892115E+03   -0.30333E-01   -0.35239E-01 48896   0.220E+00    0.187E-01
DAV:   3    -0.232903207167E+03   -0.31505E-03   -0.11926E-02 68608   0.539E-01    0.124E-01
DAV:   4    -0.232902924257E+03    0.28291E-03   -0.20454E-03 66792   0.216E-01    0.461E-02
DAV:   5    -0.232902928316E+03   -0.40590E-05   -0.45622E-04 61936   0.104E-01    0.320E-02
DAV:   6    -0.232902929448E+03   -0.11315E-05   -0.17084E-04 69648   0.530E-02    0.150E-02
DAV:   7    -0.232902930630E+03   -0.11825E-05   -0.20683E-05 63360   0.252E-02    0.971E-03
DAV:   8    -0.232902931995E+03   -0.13652E-05   -0.87110E-06 60176   0.156E-02    0.306E-03
DAV:   9    -0.232902932317E+03   -0.32188E-06   -0.13888E-06 29968   0.824E-03
  18 F= -.23290293E+03 E0= -.23290293E+03  d E =-.103528E-01  mag=    -0.0000
       N       E                     dE             d eps       ncg     rms          rms(c)
DAV:   1    -0.232900766460E+03    0.21655E-02   -0.29497E-01 47296   0.266E+00    0.116E-01
DAV:   2    -0.232903490107E+03   -0.27236E-02   -0.31625E-02 49664   0.658E-01    0.561E-02
DAV:   3    -0.232903518738E+03   -0.28632E-04   -0.10656E-03 68576   0.161E-01    0.371E-02
DAV:   4    -0.232903494163E+03    0.24575E-04   -0.18801E-04 66720   0.652E-02    0.139E-02
DAV:   5    -0.232903494561E+03   -0.39822E-06   -0.41128E-05 61712   0.313E-02    0.961E-03
DAV:   6    -0.232903494789E+03   -0.22763E-06   -0.15775E-05 65568   0.160E-02    0.447E-03
DAV:   7    -0.232903494897E+03   -0.10822E-06   -0.14578E-06 32672   0.785E-03
  19 F= -.23290349E+03 E0= -.23290349E+03  d E =-.109154E-01  mag=    -0.0000
       N       E                     dE             d eps       ncg     rms          rms(c)
DAV:   1    -0.232888362887E+03    0.15132E-01   -0.31568E+00 46624   0.812E+00    0.352E-01
DAV:   2    -0.232911521280E+03   -0.23158E-01   -0.27308E-01 53984   0.203E+00    0.186E-01
DAV:   3    -0.232911317335E+03    0.20395E-03   -0.84298E-03 68240   0.493E-01    0.117E-01
DAV:   4    -0.232911012447E+03    0.30489E-03   -0.18406E-03 66296   0.202E-01    0.448E-02
DAV:   5    -0.232911006352E+03    0.60947E-05   -0.38387E-04 62808   0.998E-02    0.275E-02
DAV:   6    -0.232911011419E+03   -0.50671E-05   -0.14857E-04 68592   0.474E-02    0.156E-02
DAV:   7    -0.232911010539E+03    0.88047E-06   -0.12493E-05 60064   0.216E-02    0.950E-03
DAV:   8    -0.232911011649E+03   -0.11105E-05   -0.11377E-05 63024   0.153E-02    0.304E-03
DAV:   9    -0.232911011653E+03   -0.40009E-08   -0.85084E-07 28480   0.719E-03
  20 F= -.23291101E+03 E0= -.23291101E+03  d E =-.751676E-02  mag=    -0.0000
       N       E                     dE             d eps       ncg     rms          rms(c)
DAV:   1    -0.232909561976E+03    0.14497E-02   -0.25240E-01 46904   0.230E+00    0.994E-02
DAV:   2    -0.232911416144E+03   -0.18542E-02   -0.21859E-02 54360   0.575E-01    0.523E-02
DAV:   3    -0.232911400132E+03    0.16012E-04   -0.66945E-04 68496   0.139E-01    0.331E-02
DAV:   4    -0.232911375757E+03    0.24375E-04   -0.14592E-04 66272   0.569E-02    0.126E-02
DAV:   5    -0.232911375246E+03    0.51068E-06   -0.30239E-05 62792   0.280E-02    0.770E-03
DAV:   6    -0.232911375688E+03   -0.44186E-06   -0.11738E-05 62864   0.134E-02    0.439E-03
DAV:   7    -0.232911375575E+03    0.11278E-06   -0.73199E-07 29168   0.638E-03
  21 F= -.23291138E+03 E0= -.23291138E+03  d E =-.788068E-02  mag=     0.0000
       N       E                     dE             d eps       ncg     rms          rms(c)
DAV:   1    -0.232897313603E+03    0.14062E-01   -0.22918E+00 47024   0.716E+00    0.303E-01
DAV:   2    -0.232916723157E+03   -0.19410E-01   -0.22505E-01 50968   0.176E+00    0.149E-01
DAV:   3    -0.232916901329E+03   -0.17817E-03   -0.73570E-03 69328   0.421E-01    0.983E-02
DAV:   4    -0.232916700088E+03    0.20124E-03   -0.10025E-03 65744   0.153E-01    0.341E-02
DAV:   5    -0.232916704675E+03   -0.45868E-05   -0.27263E-04 60832   0.775E-02    0.239E-02
DAV:   6    -0.232916704618E+03    0.56634E-07   -0.95759E-05 68720   0.386E-02    0.125E-02
DAV:   7    -0.232916704544E+03    0.74006E-07   -0.11631E-05 58992   0.185E-02    0.711E-03
DAV:   8    -0.232916705280E+03   -0.73583E-06   -0.48757E-06 48976   0.115E-02
  22 F= -.23291671E+03 E0= -.23291671E+03  d E =-.532970E-02  mag=     0.0000
       N       E                     dE             d eps       ncg     rms          rms(c)
DAV:   1    -0.232915515500E+03    0.11890E-02   -0.17171E-01 47104   0.196E+00    0.829E-02
DAV:   2    -0.232916969654E+03   -0.14542E-02   -0.16867E-02 52416   0.481E-01    0.409E-02
DAV:   3    -0.232916983284E+03   -0.13630E-04   -0.55200E-04 69344   0.115E-01    0.270E-02
DAV:   4    -0.232916968466E+03    0.14818E-04   -0.74274E-05 65904   0.418E-02    0.947E-03
DAV:   5    -0.232916968752E+03   -0.28552E-06   -0.20312E-05 60928   0.213E-02    0.650E-03
DAV:   6    -0.232916968779E+03   -0.27097E-07   -0.69284E-06 55080   0.106E-02
  23 F= -.23291697E+03 E0= -.23291697E+03  d E =-.559320E-02  mag=    -0.0000
       N       E                     dE             d eps       ncg     rms          rms(c)
DAV:   1    -0.232913854424E+03    0.31143E-02   -0.10107E+00 45312   0.447E+00    0.204E-01
DAV:   2    -0.232920117921E+03   -0.62635E-02   -0.76538E-02 55016   0.111E+00    0.112E-01
DAV:   3    -0.232920002016E+03    0.11591E-03   -0.24219E-03 67592   0.266E-01    0.700E-02
DAV:   4    -0.232919887655E+03    0.11436E-03   -0.51820E-04 67312   0.110E-01    0.245E-02
DAV:   5    -0.232919884294E+03    0.33613E-05   -0.11901E-04 61168   0.518E-02    0.155E-02
DAV:   6    -0.232919884620E+03   -0.32625E-06   -0.44801E-05 65464   0.268E-02    0.856E-03
DAV:   7    -0.232919884639E+03   -0.18986E-07   -0.49727E-06 42704   0.124E-02
  24 F= -.23291988E+03 E0= -.23291988E+03  d E =-.291586E-02  mag=     0.0000
       N       E                     dE             d eps       ncg     rms          rms(c)
DAV:   1    -0.232919221700E+03    0.66292E-03   -0.15332E-01 45480   0.174E+00    0.793E-02
DAV:   2    -0.232920173715E+03   -0.95201E-03   -0.11644E-02 55536   0.435E-01    0.440E-02
DAV:   3    -0.232920156538E+03    0.17177E-04   -0.37538E-04 67552   0.104E-01    0.274E-02
DAV:   4    -0.232920138752E+03    0.17786E-04   -0.74983E-05 67728   0.426E-02    0.965E-03
DAV:   5    -0.232920138293E+03    0.45895E-06   -0.18386E-05 61040   0.201E-02    0.600E-03
DAV:   6    -0.232920138299E+03   -0.56634E-08   -0.63180E-06 51632   0.105E-02
  25 F= -.23292014E+03 E0= -.23292014E+03  d E =-.316952E-02  mag=    -0.0000
       N       E                     dE             d eps       ncg     rms          rms(c)
DAV:   1    -0.232917886299E+03    0.22520E-02   -0.65315E-01 46880   0.355E+00    0.201E-01
DAV:   2    -0.232922106096E+03   -0.42198E-02   -0.56002E-02 54312   0.942E-01    0.108E-01
DAV:   3    -0.232921991726E+03    0.11437E-03   -0.21463E-03 66496   0.234E-01    0.592E-02
DAV:   4    -0.232921926642E+03    0.65084E-04   -0.34857E-04 71568   0.103E-01    0.237E-02
DAV:   5    -0.232921924071E+03    0.25707E-05   -0.86709E-05 65656   0.415E-02    0.123E-02
DAV:   6    -0.232921925189E+03   -0.11180E-05   -0.23083E-05 66480   0.217E-02    0.653E-03
DAV:   7    -0.232921925749E+03   -0.56052E-06   -0.36531E-06 39904   0.109E-02
  26 F= -.23292193E+03 E0= -.23292193E+03  d E =-.178745E-02  mag=    -0.0000
       N       E                     dE             d eps       ncg     rms          rms(c)
DAV:   1    -0.232921756891E+03    0.16830E-03   -0.40823E-02 47584   0.889E-01    0.501E-02
DAV:   2    -0.232922021739E+03   -0.26485E-03   -0.35076E-03 55120   0.237E-01    0.270E-02
DAV:   3    -0.232922015555E+03    0.61839E-05   -0.13580E-04 66624   0.587E-02    0.148E-02
DAV:   4    -0.232922011826E+03    0.37294E-05   -0.20908E-05 70792   0.258E-02    0.600E-03
DAV:   5    -0.232922011997E+03   -0.17153E-06   -0.48768E-06 46064   0.105E-02
  27 F= -.23292201E+03 E0= -.23292201E+03  d E =-.187370E-02  mag=     0.0000
       N       E                     dE             d eps       ncg     rms          rms(c)
DAV:   1    -0.232920450065E+03    0.15618E-02   -0.28659E-01 46656   0.251E+00    0.107E-01
DAV:   2    -0.232922862780E+03   -0.24127E-02   -0.27796E-02 50856   0.628E-01    0.554E-02
DAV:   3    -0.232922882605E+03   -0.19825E-04   -0.10184E-03 67856   0.157E-01    0.383E-02
DAV:   4    -0.232922851979E+03    0.30625E-04   -0.14638E-04 64728   0.589E-02    0.144E-02
DAV:   5    -0.232922851849E+03    0.13084E-06   -0.45487E-05 62336   0.314E-02    0.944E-03
DAV:   6    -0.232922851683E+03    0.16559E-06   -0.11833E-05 63392   0.147E-02    0.479E-03
DAV:   7    -0.232922851697E+03   -0.14215E-07   -0.18342E-06 34928   0.793E-03
  28 F= -.23292285E+03 E0= -.23292285E+03  d E =-.839700E-03  mag=    -0.0000
       N       E                     dE             d eps       ncg     rms          rms(c)
DAV:   1    -0.232922835370E+03    0.16313E-04   -0.28992E-03 49128   0.253E-01    0.107E-02
DAV:   2    -0.232922860187E+03   -0.24818E-04   -0.28552E-04 52160   0.638E-02    0.593E-03
DAV:   3    -0.232922860181E+03    0.63737E-08   -0.98018E-06 58928   0.160E-02
  29 F= -.23292286E+03 E0= -.23292286E+03  d E =-.848184E-03  mag=     0.0000
       N       E                     dE             d eps       ncg     rms          rms(c)
DAV:   1    -0.232922459633E+03    0.40055E-03   -0.10852E-01 47216   0.150E+00    0.685E-02
DAV:   2    -0.232923305887E+03   -0.84625E-03   -0.99703E-03 53960   0.382E-01    0.367E-02
DAV:   3    -0.232923304143E+03    0.17443E-05   -0.33388E-04 67584   0.959E-02    0.237E-02
DAV:   4    -0.232923292146E+03    0.11997E-04   -0.66283E-05 64256   0.386E-02    0.840E-03
DAV:   5    -0.232923292466E+03   -0.32048E-06   -0.17957E-05 62288   0.203E-02    0.602E-03
DAV:   6    -0.232923292333E+03    0.13320E-06   -0.44692E-06 47024   0.917E-03
  30 F= -.23292329E+03 E0= -.23292329E+03  d E =-.432152E-03  mag=     0.0000
       N       E                     dE             d eps       ncg     rms          rms(c)
DAV:   1    -0.232923207151E+03    0.85315E-04   -0.14455E-02 47696   0.549E-01    0.255E-02
DAV:   2    -0.232923321124E+03   -0.11397E-03   -0.13408E-03 54192   0.140E-01    0.134E-02
DAV:   3    -0.232923320971E+03    0.15325E-06   -0.44812E-05 67784   0.354E-02    0.872E-03
DAV:   4    -0.232923319386E+03    0.15848E-05   -0.89009E-06 58240   0.145E-02    0.315E-03
DAV:   5    -0.232923319389E+03   -0.27985E-08   -0.23133E-06 38544   0.850E-03
  31 F= -.23292332E+03 E0= -.23292332E+03  d E =-.459208E-03  mag=     0.0000
       N       E                     dE             d eps       ncg     rms          rms(c)
DAV:   1    -0.232923214526E+03    0.10486E-03   -0.81601E-02 46824   0.124E+00    0.654E-02
DAV:   2    -0.232923673198E+03   -0.45867E-03   -0.58619E-03 55992   0.312E-01    0.362E-02
DAV:   3    -0.232923657273E+03    0.15924E-04   -0.20789E-04 68288   0.809E-02    0.200E-02
DAV:   4    -0.232923650591E+03    0.66820E-05   -0.48895E-05 65952   0.312E-02    0.750E-03
DAV:   5    -0.232923650598E+03   -0.69276E-08   -0.80048E-06 52816   0.155E-02
  32 F= -.23292365E+03 E0= -.23292365E+03  d E =-.331209E-03  mag=     0.0000
       N       E                     dE             d eps       ncg     rms          rms(c)
DAV:   1    -0.232923571329E+03    0.79262E-04   -0.23636E-02 47160   0.665E-01    0.356E-02
DAV:   2    -0.232923705964E+03   -0.13463E-03   -0.17038E-03 56224   0.168E-01    0.199E-02
DAV:   3    -0.232923701469E+03    0.44957E-05   -0.59131E-05 68432   0.439E-02    0.109E-02
DAV:   4    -0.232923700042E+03    0.14265E-05   -0.15937E-05 64336   0.175E-02    0.427E-03
DAV:   5    -0.232923700096E+03   -0.54120E-07   -0.19844E-06 37488   0.880E-03
  33 F= -.23292370E+03 E0= -.23292370E+03  d E =-.380707E-03  mag=     0.0000
       N       E                     dE             d eps       ncg     rms          rms(c)
DAV:   1    -0.232923545715E+03    0.15433E-03   -0.65373E-02 46672   0.112E+00    0.566E-02
DAV:   2    -0.232923924317E+03   -0.37860E-03   -0.47458E-03 56944   0.283E-01    0.337E-02
DAV:   3    -0.232923908850E+03    0.15467E-04   -0.16094E-04 69040   0.732E-02    0.201E-02
DAV:   4    -0.232923899287E+03    0.95631E-05   -0.49768E-05 67312   0.317E-02    0.709E-03
DAV:   5    -0.232923898679E+03    0.60842E-06   -0.85487E-06 53520   0.156E-02
  34 F= -.23292390E+03 E0= -.23292390E+03  d E =-.198583E-03  mag=    -0.0000
       N       E                     dE             d eps       ncg     rms          rms(c)
DAV:   1    -0.232923898693E+03    0.59410E-06   -0.87682E-06 48648   0.131E-02    0.224E-03
DAV:   2    -0.232923898716E+03   -0.23302E-07   -0.88680E-07 26880   0.576E-03
  35 F= -.23292390E+03 E0= -.23292390E+03  d E =-.198620E-03  mag=    -0.0000
       N       E                     dE             d eps       ncg     rms          rms(c)
DAV:   1    -0.232923852510E+03    0.46183E-04   -0.36197E-02 46776   0.788E-01    0.354E-02
DAV:   2    -0.232924030408E+03   -0.17790E-03   -0.21582E-03 55584   0.201E-01    0.215E-02
DAV:   3    -0.232924025749E+03    0.46591E-05   -0.78186E-05 68032   0.513E-02    0.135E-02
DAV:   4    -0.232924021202E+03    0.45470E-05   -0.23758E-05 62168   0.219E-02    0.457E-03
DAV:   5    -0.232924021024E+03    0.17801E-06   -0.44853E-06 40704   0.116E-02
  36 F= -.23292402E+03 E0= -.23292402E+03  d E =-.122308E-03  mag=     0.0000
       N       E                     dE             d eps       ncg     rms          rms(c)
DAV:   1    -0.232924020347E+03    0.85534E-06   -0.63374E-04 49920   0.105E-01    0.523E-03
DAV:   2    -0.232924023813E+03   -0.34666E-05   -0.40988E-05 56160   0.269E-02    0.320E-03
DAV:   3    -0.232924023660E+03    0.15321E-06   -0.10311E-06 38504   0.728E-03
  37 F= -.23292402E+03 E0= -.23292402E+03  d E =-.124944E-03  mag=    -0.0000
       N       E                     dE             d eps       ncg     rms          rms(c)
DAV:   1    -0.232924010640E+03    0.13174E-04   -0.14680E-02 46896   0.513E-01    0.220E-02
DAV:   2    -0.232924087514E+03   -0.76874E-04   -0.90836E-04 56112   0.129E-01    0.135E-02
DAV:   3    -0.232924085680E+03    0.18338E-05   -0.31352E-05 68288   0.328E-02    0.833E-03
DAV:   4    -0.232924084123E+03    0.15571E-05   -0.86651E-06 58272   0.131E-02    0.284E-03
DAV:   5    -0.232924084136E+03   -0.13151E-07   -0.18359E-06 35984   0.735E-03
  38 F= -.23292408E+03 E0= -.23292408E+03  d E =-.604762E-04  mag=     0.0000
