       N       E                     dE             d eps       ncg     rms          rms(c)
DAV:   1     0.769220156969E+03    0.76922E+03   -0.66186E+04 26424   0.130E+03
DAV:   2    -0.207983378418E+03   -0.97720E+03   -0.93746E+03 32336   0.305E+02
DAV:   3    -0.276731750204E+03   -0.68748E+02   -0.68200E+02 31488   0.842E+01
DAV:   4    -0.277886835175E+03   -0.11551E+01   -0.11516E+01 31944   0.119E+01
DAV:   5    -0.277908588914E+03   -0.21754E-01   -0.21739E-01 32104   0.159E+00    0.443E+01
DAV:   6    -0.233857096782E+03    0.44051E+02   -0.19219E+02 31096   0.435E+01    0.122E+01
DAV:   7    -0.235712339797E+03   -0.18552E+01   -0.16517E+01 30864   0.131E+01    0.743E+00
DAV:   8    -0.235504489205E+03    0.20785E+00   -0.11702E+00 31072   0.369E+00    0.414E+00
DAV:   9    -0.235423413174E+03    0.81076E-01   -0.73604E-01 31832   0.314E+00    0.109E+00
DAV:  10    -0.235394434264E+03    0.28979E-01   -0.15137E-01 31792   0.139E+00    0.524E-01
DAV:  11    -0.235392216589E+03    0.22177E-02   -0.32005E-02 32552   0.590E-01    0.248E-01
DAV:  12    -0.235392406015E+03   -0.18943E-03   -0.27281E-03 32088   0.255E-01    0.127E-01
DAV:  13    -0.235392395263E+03    0.10751E-04   -0.17336E-03 34384   0.196E-01    0.604E-02
DAV:  14    -0.235392202733E+03    0.19253E-03   -0.47762E-04 32256   0.917E-02    0.349E-02
DAV:  15    -0.235392186536E+03    0.16197E-04   -0.11351E-04 32768   0.403E-02    0.136E-02
DAV:  16    -0.235392184780E+03    0.17561E-05   -0.20997E-05 32856   0.204E-02    0.843E-03
DAV:  17    -0.235392184135E+03    0.64542E-06   -0.67590E-06 29856   0.111E-02
   1 F= -.23539218E+03 E0= -.23539218E+03  d E =-.235392E+03  mag=     0.0007
       N       E                     dE             d eps       ncg     rms          rms(c)
DAV:   1    -0.227434958308E+03    0.79572E+01   -0.16142E+03 26112   0.149E+02    0.129E+01
DAV:   2    -0.234638252325E+03   -0.72033E+01   -0.11892E+02 30152   0.316E+01    0.852E+00
DAV:   3    -0.234027793016E+03    0.61046E+00   -0.13533E+01 31512   0.874E+00    0.508E+00
DAV:   4    -0.233598067194E+03    0.42973E+00   -0.35476E+00 30672   0.505E+00    0.300E+00
DAV:   5    -0.233539791679E+03    0.58276E-01   -0.20268E+00 32440   0.277E+00    0.188E+00
DAV:   6    -0.233465211255E+03    0.74580E-01   -0.25154E-01 31208   0.131E+00    0.802E-01
DAV:   7    -0.233459430520E+03    0.57807E-02   -0.85208E-02 31608   0.826E-01    0.394E-01
DAV:   8    -0.233457986900E+03    0.14436E-02   -0.17154E-02 32840   0.391E-01    0.144E-01
DAV:   9    -0.233457957725E+03    0.29175E-04   -0.33588E-03 31776   0.187E-01    0.805E-02
DAV:  10    -0.233457931484E+03    0.26242E-04   -0.44832E-04 31752   0.719E-02    0.415E-02
DAV:  11    -0.233457916272E+03    0.15212E-04   -0.16352E-04 30848   0.379E-02    0.124E-02
DAV:  12    -0.233457919615E+03   -0.33428E-05   -0.42008E-05 32032   0.194E-02    0.907E-03
DAV:  13    -0.233457918325E+03    0.12904E-05   -0.60726E-06 29912   0.862E-03    0.419E-03
DAV:  14    -0.233457918367E+03   -0.42148E-07   -0.16204E-06 16896   0.449E-03
   2 F= -.23345792E+03 E0= -.23345792E+03  d E =0.193427E+01  mag=    -0.0000
       N       E                     dE             d eps       ncg     rms          rms(c)
DAV:   1    -0.235835125446E+03   -0.23772E+01   -0.78237E+02 26112   0.969E+01    0.109E+01
DAV:   2    -0.237815413457E+03   -0.19803E+01   -0.55008E+01 28736   0.217E+01    0.462E+00
DAV:   3    -0.237343319327E+03    0.47209E+00   -0.15537E+00 30696   0.494E+00    0.203E+00
DAV:   4    -0.237230157508E+03    0.11316E+00   -0.38369E-01 30896   0.240E+00    0.814E-01
DAV:   5    -0.237225841075E+03    0.43164E-02   -0.13846E-01 30992   0.117E+00    0.426E-01
DAV:   6    -0.237224782623E+03    0.10585E-02   -0.86323E-03 30528   0.360E-01    0.260E-01
DAV:   7    -0.237224795734E+03   -0.13111E-04   -0.64738E-03 31584   0.275E-01    0.960E-02
DAV:   8    -0.237224657609E+03    0.13812E-03   -0.76640E-04 32456   0.125E-01    0.463E-02
DAV:   9    -0.237224692161E+03   -0.34552E-04   -0.71778E-04 32496   0.878E-02    0.236E-02
DAV:  10    -0.237224686951E+03    0.52101E-05   -0.79464E-05 32648   0.358E-02    0.113E-02
DAV:  11    -0.237224690089E+03   -0.31377E-05   -0.37524E-05 31584   0.187E-02    0.668E-03
DAV:  12    -0.237224690271E+03   -0.18143E-06   -0.28173E-06 25288   0.794E-03
   3 F= -.23722469E+03 E0= -.23722469E+03  d E =-.183251E+01  mag=    -0.0000
       N       E                     dE             d eps       ncg     rms          rms(c)
DAV:   1    -0.237247160006E+03   -0.22470E-01   -0.14269E+00 26464   0.417E+00    0.413E-01
DAV:   2    -0.237247484356E+03   -0.32435E-03   -0.55587E-02 29984   0.722E-01    0.171E-01
DAV:   3    -0.237246933562E+03    0.55079E-03   -0.26733E-03 31840   0.196E-01    0.693E-02
DAV:   4    -0.237246832535E+03    0.10103E-03   -0.40455E-04 29888   0.741E-02    0.306E-02
DAV:   5    -0.237246831030E+03    0.15054E-05   -0.14486E-04 30608   0.371E-02    0.137E-02
DAV:   6    -0.237246832813E+03   -0.17834E-05   -0.11017E-05 31616   0.138E-02    0.768E-03
DAV:   7    -0.237246836034E+03   -0.32203E-05   -0.67710E-06 29904   0.892E-03    0.369E-03
DAV:   8    -0.237246836061E+03   -0.27008E-07   -0.84949E-07 16320   0.412E-03
   4 F= -.23724684E+03 E0= -.23724684E+03  d E =-.185465E+01  mag=    -0.0000
       N       E                     dE             d eps       ncg     rms          rms(c)
DAV:   1    -0.236758604237E+03    0.48823E+00   -0.28141E+02 26112   0.626E+01    0.503E+00
DAV:   2    -0.237530065698E+03   -0.77146E+00   -0.16547E+01 29240   0.124E+01    0.255E+00
DAV:   3    -0.237374870840E+03    0.15519E+00   -0.57653E-01 32448   0.279E+00    0.104E+00
DAV:   4    -0.237352452481E+03    0.22418E-01   -0.10989E-01 31640   0.115E+00    0.439E-01
DAV:   5    -0.237348177565E+03    0.42749E-02   -0.18347E-02 32080   0.528E-01    0.170E-01
DAV:   6    -0.237347974061E+03    0.20350E-03   -0.41315E-03 32208   0.240E-01    0.111E-01
DAV:   7    -0.237347843968E+03    0.13009E-03   -0.75343E-04 34128   0.115E-01    0.540E-02
DAV:   8    -0.237347825607E+03    0.18361E-04   -0.37446E-04 31312   0.737E-02    0.218E-02
DAV:   9    -0.237347825467E+03    0.14040E-06   -0.73739E-05 32096   0.326E-02    0.143E-02
DAV:  10    -0.237347824942E+03    0.52531E-06   -0.25494E-05 30736   0.165E-02    0.751E-03
DAV:  11    -0.237347824976E+03   -0.34195E-07   -0.58836E-06 30392   0.898E-03
   5 F= -.23734782E+03 E0= -.23734782E+03  d E =-.100989E+00  mag=    -0.0000
       N       E                     dE             d eps       ncg     rms          rms(c)
DAV:   1    -0.237668628296E+03   -0.32080E+00   -0.64114E+01 26112   0.293E+01    0.240E+00
DAV:   2    -0.237850026915E+03   -0.18140E+00   -0.38635E+00 29376   0.622E+00    0.132E+00
DAV:   3    -0.237808820145E+03    0.41207E-01   -0.11822E-01 32480   0.138E+00    0.617E-01
DAV:   4    -0.237799533464E+03    0.92867E-02   -0.45882E-02 31128   0.729E-01    0.196E-01
DAV:   5    -0.237798987136E+03    0.54633E-03   -0.57341E-03 32800   0.307E-01    0.973E-02
DAV:   6    -0.237799015979E+03   -0.28843E-04   -0.15669E-03 30904   0.131E-01    0.659E-02
DAV:   7    -0.237798967454E+03    0.48525E-04   -0.26111E-04 31824   0.635E-02    0.289E-02
DAV:   8    -0.237798966895E+03    0.55946E-06   -0.11382E-04 31424   0.421E-02    0.157E-02
DAV:   9    -0.237798966436E+03    0.45862E-06   -0.27232E-05 32768   0.205E-02    0.810E-03
DAV:  10    -0.237798966666E+03   -0.23009E-06   -0.10436E-05 28784   0.104E-02    0.393E-03
DAV:  11    -0.237798966806E+03   -0.14006E-06   -0.10625E-06 16624   0.445E-03
   6 F= -.23779897E+03 E0= -.23779897E+03  d E =-.552131E+00  mag=     0.0000
       N       E                     dE             d eps       ncg     rms          rms(c)
DAV:   1    -0.237952638048E+03   -0.15367E+00   -0.29799E+01 26112   0.200E+01    0.231E+00
DAV:   2    -0.237934855191E+03    0.17783E-01   -0.14987E+00 29792   0.379E+00    0.952E-01
DAV:   3    -0.237917011436E+03    0.17844E-01   -0.76286E-02 32112   0.101E+00    0.341E-01
DAV:   4    -0.237915028545E+03    0.19829E-02   -0.14295E-02 31728   0.416E-01    0.149E-01
DAV:   5    -0.237914746052E+03    0.28249E-03   -0.19968E-03 31344   0.175E-01    0.572E-02
DAV:   6    -0.237914777517E+03   -0.31465E-04   -0.60208E-04 32656   0.879E-02    0.358E-02
DAV:   7    -0.237914779595E+03   -0.20776E-05   -0.84663E-05 31648   0.333E-02    0.191E-02
DAV:   8    -0.237914784792E+03   -0.51971E-05   -0.31141E-05 31552   0.192E-02    0.652E-03
DAV:   9    -0.237914787168E+03   -0.23761E-05   -0.47330E-06 30608   0.881E-03    0.326E-03
DAV:  10    -0.237914787414E+03   -0.24600E-06   -0.14008E-06 16336   0.453E-03
   7 F= -.23791479E+03 E0= -.23791479E+03  d E =-.115821E+00  mag=     0.0000
       N       E                     dE             d eps       ncg     rms          rms(c)
DAV:   1    -0.237935101501E+03   -0.20314E-01   -0.20606E+00 26112   0.528E+00    0.600E-01
DAV:   2    -0.237933897977E+03    0.12035E-02   -0.10261E-01 29872   0.987E-01    0.252E-01
DAV:   3    -0.237932642786E+03    0.12552E-02   -0.57790E-03 32016   0.273E-01    0.875E-02
DAV:   4    -0.237932498812E+03    0.14397E-03   -0.94219E-04 31424   0.108E-01    0.405E-02
DAV:   5    -0.237932464458E+03    0.34354E-04   -0.15107E-04 31104   0.464E-02    0.149E-02
DAV:   6    -0.237932462686E+03    0.17721E-05   -0.40006E-05 32816   0.228E-02    0.951E-03
DAV:   7    -0.237932460766E+03    0.19203E-05   -0.62568E-06 29360   0.885E-03    0.488E-03
DAV:   8    -0.237932459400E+03    0.13653E-05   -0.13992E-06 17248   0.449E-03    0.167E-03
DAV:   9    -0.237932458934E+03    0.46651E-06   -0.51963E-07 16544   0.258E-03
   8 F= -.23793246E+03 E0= -.23793246E+03  d E =-.133492E+00  mag=     0.0000
       N       E                     dE             d eps       ncg     rms          rms(c)
DAV:   1    -0.237959971094E+03   -0.27512E-01   -0.17851E+01 26112   0.142E+01    0.669E-01
DAV:   2    -0.237979956280E+03   -0.19985E-01   -0.42235E-01 31248   0.210E+00    0.477E-01
DAV:   3    -0.237973256267E+03    0.67000E-02   -0.19822E-02 32576   0.586E-01    0.253E-01
DAV:   4    -0.237971418668E+03    0.18376E-02   -0.11030E-02 31168   0.352E-01    0.831E-02
DAV:   5    -0.237971382458E+03    0.36210E-04   -0.15106E-03 32544   0.146E-01    0.529E-02
DAV:   6    -0.237971377818E+03    0.46402E-05   -0.37946E-04 31008   0.643E-02    0.303E-02
DAV:   7    -0.237971367390E+03    0.10428E-04   -0.63606E-05 32416   0.318E-02    0.130E-02
DAV:   8    -0.237971366478E+03    0.91238E-06   -0.19759E-05 31568   0.187E-02    0.649E-03
DAV:   9    -0.237971366315E+03    0.16246E-06   -0.65620E-06 30048   0.928E-03
   9 F= -.23797137E+03 E0= -.23797137E+03  d E =-.389074E-01  mag=    -0.0000
       N       E                     dE             d eps       ncg     rms          rms(c)
DAV:   1    -0.237977953658E+03   -0.65872E-02   -0.15067E+00 26112   0.408E+00    0.190E-01
DAV:   2    -0.237979657813E+03   -0.17042E-02   -0.34893E-02 31328   0.599E-01    0.143E-01
DAV:   3    -0.237979077401E+03    0.58041E-03   -0.16238E-03 32480   0.168E-01    0.750E-02
DAV:   4    -0.237978904177E+03    0.17322E-03   -0.10277E-03 31088   0.108E-01    0.245E-02
DAV:   5    -0.237978901654E+03    0.25231E-05   -0.14922E-04 32544   0.455E-02    0.165E-02
DAV:   6    -0.237978900347E+03    0.13070E-05   -0.36435E-05 30960   0.199E-02    0.934E-03
DAV:   7    -0.237978899276E+03    0.10701E-05   -0.69822E-06 30736   0.987E-03    0.418E-03
DAV:   8    -0.237978898839E+03    0.43780E-06   -0.14923E-06 20368   0.563E-03
  10 F= -.23797890E+03 E0= -.23797890E+03  d E =-.464399E-01  mag=    -0.0000
       N       E                     dE             d eps       ncg     rms          rms(c)
DAV:   1    -0.238018334862E+03   -0.39436E-01   -0.77544E+00 26112   0.984E+00    0.811E-01
DAV:   2    -0.238028279001E+03   -0.99441E-02   -0.30408E-01 29088   0.169E+00    0.399E-01
DAV:   3    -0.238024521333E+03    0.37577E-02   -0.11636E-02 32560   0.396E-01    0.172E-01
DAV:   4    -0.238023841247E+03    0.68009E-03   -0.22982E-03 31280   0.171E-01    0.653E-02
DAV:   5    -0.238023777354E+03    0.63894E-04   -0.53057E-04 32488   0.798E-02    0.268E-02
DAV:   6    -0.238023770617E+03    0.67367E-05   -0.62779E-05 31864   0.330E-02    0.164E-02
DAV:   7    -0.238023768816E+03    0.18005E-05   -0.23362E-05 32216   0.166E-02    0.807E-03
DAV:   8    -0.238023767530E+03    0.12867E-05   -0.34585E-06 26624   0.782E-03    0.265E-03
DAV:   9    -0.238023767452E+03    0.77662E-07   -0.15738E-06 16320   0.439E-03
  11 F= -.23802377E+03 E0= -.23802377E+03  d E =-.448686E-01  mag=     0.0000
       N       E                     dE             d eps       ncg     rms          rms(c)
DAV:   1    -0.238029161208E+03   -0.53937E-02   -0.30124E+00 26112   0.614E+00    0.505E-01
DAV:   2    -0.238033007562E+03   -0.38464E-02   -0.11821E-01 29104   0.105E+00    0.248E-01
DAV:   3    -0.238031548029E+03    0.14595E-02   -0.44440E-03 32576   0.247E-01    0.108E-01
DAV:   4    -0.238031274741E+03    0.27329E-03   -0.90653E-04 31280   0.108E-01    0.403E-02
DAV:   5    -0.238031249127E+03    0.25614E-04   -0.20533E-04 32400   0.496E-02    0.168E-02
DAV:   6    -0.238031246146E+03    0.29802E-05   -0.24201E-05 32240   0.206E-02    0.102E-02
DAV:   7    -0.238031244984E+03    0.11625E-05   -0.87576E-06 30048   0.102E-02    0.491E-03
DAV:   8    -0.238031244315E+03    0.66837E-06   -0.11346E-06 16832   0.476E-03
  12 F= -.23803124E+03 E0= -.23803124E+03  d E =-.523455E-01  mag=     0.0000
       N       E                     dE             d eps       ncg     rms          rms(c)
DAV:   1    -0.238026508104E+03    0.47369E-02   -0.77282E+00 26112   0.103E+01    0.651E-01
DAV:   2    -0.238062980522E+03   -0.36472E-01   -0.52569E-01 28240   0.225E+00    0.304E-01
DAV:   3    -0.238062533738E+03    0.44678E-03   -0.11167E-02 33760   0.377E-01    0.171E-01
DAV:   4    -0.238062271567E+03    0.26217E-03   -0.15956E-03 31712   0.149E-01    0.682E-02
DAV:   5    -0.238062244821E+03    0.26746E-04   -0.26423E-04 32416   0.721E-02    0.290E-02
DAV:   6    -0.238062249812E+03   -0.49917E-05   -0.10914E-04 32208   0.396E-02    0.136E-02
DAV:   7    -0.238062249694E+03    0.11825E-06   -0.18284E-05 30640   0.168E-02    0.758E-03
DAV:   8    -0.238062249887E+03   -0.19321E-06   -0.73262E-06 29888   0.904E-03
  13 F= -.23806225E+03 E0= -.23806225E+03  d E =-.310056E-01  mag=    -0.0000
       N       E                     dE             d eps       ncg     rms          rms(c)
DAV:   1    -0.238058515397E+03    0.37343E-02   -0.14933E+00 26112   0.452E+00    0.289E-01
DAV:   2    -0.238065570809E+03   -0.70554E-02   -0.10252E-01 28320   0.991E-01    0.134E-01
DAV:   3    -0.238065490751E+03    0.80058E-04   -0.22138E-03 33760   0.167E-01    0.755E-02
DAV:   4    -0.238065441297E+03    0.49455E-04   -0.30887E-04 31632   0.657E-02    0.305E-02
DAV:   5    -0.238065436886E+03    0.44103E-05   -0.52635E-05 32320   0.322E-02    0.129E-02
DAV:   6    -0.238065438202E+03   -0.13160E-05   -0.21606E-05 32272   0.179E-02    0.602E-03
DAV:   7    -0.238065438328E+03   -0.12593E-06   -0.37483E-06 26352   0.757E-03
  14 F= -.23806544E+03 E0= -.23806544E+03  d E =-.341940E-01  mag=     0.0000
       N       E                     dE             d eps       ncg     rms          rms(c)
DAV:   1    -0.238080350727E+03   -0.14913E-01   -0.46260E+00 26112   0.759E+00    0.441E-01
DAV:   2    -0.238089922766E+03   -0.95720E-02   -0.16932E-01 28256   0.131E+00    0.217E-01
DAV:   3    -0.238089130215E+03    0.79255E-03   -0.52685E-03 33136   0.278E-01    0.108E-01
DAV:   4    -0.238088980076E+03    0.15014E-03   -0.12621E-03 31216   0.124E-01    0.476E-02
DAV:   5    -0.238088977471E+03    0.26060E-05   -0.16855E-04 30720   0.456E-02    0.241E-02
DAV:   6    -0.238088981008E+03   -0.35379E-05   -0.29751E-05 32320   0.201E-02    0.101E-02
DAV:   7    -0.238088981465E+03   -0.45697E-06   -0.48687E-06 29840   0.939E-03
  15 F= -.23808898E+03 E0= -.23808898E+03  d E =-.235431E-01  mag=     0.0000
       N       E                     dE             d eps       ncg     rms          rms(c)
DAV:   1    -0.238069089238E+03    0.19892E-01   -0.18787E+01 26112   0.153E+01    0.885E-01
DAV:   2    -0.238109146804E+03   -0.40058E-01   -0.69831E-01 28160   0.267E+00    0.432E-01
DAV:   3    -0.238106033408E+03    0.31134E-02   -0.21722E-02 33248   0.562E-01    0.216E-01
DAV:   4    -0.238105432793E+03    0.60061E-03   -0.48267E-03 31120   0.243E-01    0.959E-02
DAV:   5    -0.238105415131E+03    0.17662E-04   -0.69523E-04 30960   0.917E-02    0.477E-02
DAV:   6    -0.238105427448E+03   -0.12317E-04   -0.11535E-04 32448   0.404E-02    0.203E-02
DAV:   7    -0.238105428327E+03   -0.87931E-06   -0.20768E-05 32272   0.193E-02    0.843E-03
DAV:   8    -0.238105428897E+03   -0.57009E-06   -0.61452E-06 29152   0.942E-03
  16 F= -.23810543E+03 E0= -.23810543E+03  d E =-.399906E-01  mag=    -0.0000
       N       E                     dE             d eps       ncg     rms          rms(c)
DAV:   1    -0.238112562097E+03   -0.71338E-02   -0.36504E+00 26112   0.701E+00    0.404E-01
DAV:   2    -0.238124876393E+03   -0.12314E-01   -0.18415E-01 28096   0.136E+00    0.202E-01
DAV:   3    -0.238124307788E+03    0.56861E-03   -0.39955E-03 33456   0.236E-01    0.106E-01
DAV:   4    -0.238124145389E+03    0.16240E-03   -0.75129E-04 31392   0.100E-01    0.393E-02
DAV:   5    -0.238124143424E+03    0.19645E-05   -0.14045E-04 31712   0.401E-02    0.181E-02
DAV:   6    -0.238124142633E+03    0.79180E-06   -0.15279E-05 33688   0.163E-02    0.833E-03
DAV:   7    -0.238124142570E+03    0.62473E-07   -0.42207E-06 28592   0.804E-03
  17 F= -.23812414E+03 E0= -.23812414E+03  d E =-.187137E-01  mag=    -0.0000
       N       E                     dE             d eps       ncg     rms          rms(c)
DAV:   1    -0.238055173168E+03    0.68969E-01   -0.32787E+01 26112   0.211E+01    0.121E+00
DAV:   2    -0.238166624020E+03   -0.11145E+00   -0.16531E+00 27696   0.407E+00    0.600E-01
DAV:   3    -0.238161335638E+03    0.52884E-02   -0.36078E-02 33440   0.713E-01    0.310E-01
DAV:   4    -0.238159949089E+03    0.13865E-02   -0.67941E-03 31152   0.300E-01    0.115E-01
DAV:   5    -0.238159928872E+03    0.20217E-04   -0.12194E-03 32016   0.120E-01    0.529E-02
DAV:   6    -0.238159920839E+03    0.80330E-05   -0.13781E-04 33296   0.487E-02    0.249E-02
DAV:   7    -0.238159919382E+03    0.14575E-05   -0.38895E-05 30800   0.246E-02    0.117E-02
DAV:   8    -0.238159918940E+03    0.44197E-06   -0.11612E-05 31440   0.134E-02    0.314E-03
DAV:   9    -0.238159919141E+03   -0.20153E-06   -0.21170E-06 19952   0.546E-03
  18 F= -.23815992E+03 E0= -.23815992E+03  d E =-.544902E-01  mag=     0.0000
       N       E                     dE             d eps       ncg     rms          rms(c)
DAV:   1    -0.237671974695E+03    0.48794E+00   -0.13069E+02 26112   0.423E+01    0.244E+00
DAV:   2    -0.238150674485E+03   -0.47870E+00   -0.69149E+00 27232   0.823E+00    0.121E+00
DAV:   3    -0.238126972652E+03    0.23702E-01   -0.15475E-01 33440   0.149E+00    0.610E-01
DAV:   4    -0.238121483090E+03    0.54896E-02   -0.27260E-02 31232   0.607E-01    0.237E-01
DAV:   5    -0.238121363243E+03    0.11985E-03   -0.50526E-03 32368   0.257E-01    0.992E-02
DAV:   6    -0.238121314630E+03    0.48612E-04   -0.58723E-04 33168   0.104E-01    0.505E-02
DAV:   7    -0.238121312330E+03    0.23009E-05   -0.18684E-04 31264   0.511E-02    0.208E-02
DAV:   8    -0.238121309997E+03    0.23323E-05   -0.39333E-05 32064   0.254E-02    0.623E-03
DAV:   9    -0.238121310833E+03   -0.83599E-06   -0.98359E-06 28592   0.108E-02
  19 F= -.23812131E+03 E0= -.23812131E+03  d E =-.158819E-01  mag=    -0.0000
       N       E                     dE             d eps       ncg     rms          rms(c)
DAV:   1    -0.237890988203E+03    0.23032E+00   -0.77467E+01 26112   0.324E+01    0.190E+00
DAV:   2    -0.238185108349E+03   -0.29412E+00   -0.43122E+00 27696   0.647E+00    0.981E-01
DAV:   3    -0.238169556797E+03    0.15552E-01   -0.97397E-02 32576   0.114E+00    0.514E-01
DAV:   4    -0.238164917211E+03    0.46396E-02   -0.17607E-02 31664   0.498E-01    0.193E-01
DAV:   5    -0.238164775419E+03    0.14179E-03   -0.36035E-03 31968   0.205E-01    0.904E-02
DAV:   6    -0.238164747826E+03    0.27593E-04   -0.47607E-04 34496   0.881E-02    0.401E-02
DAV:   7    -0.238164741697E+03    0.61287E-05   -0.10809E-04 30688   0.402E-02    0.199E-02
DAV:   8    -0.238164739697E+03    0.20003E-05   -0.37823E-05 32016   0.225E-02    0.582E-03
DAV:   9    -0.238164740025E+03   -0.32755E-06   -0.57066E-06 29072   0.913E-03
  20 F= -.23816474E+03 E0= -.23816474E+03  d E =-.593111E-01  mag=     0.0000
       N       E                     dE             d eps       ncg     rms          rms(c)
DAV:   1    -0.238150319888E+03    0.14420E-01   -0.11374E+01 26112   0.123E+01    0.638E-01
DAV:   2    -0.238200286979E+03   -0.49967E-01   -0.64732E-01 26992   0.249E+00    0.329E-01
DAV:   3    -0.238199391453E+03    0.89553E-03   -0.13244E-02 33008   0.422E-01    0.187E-01
DAV:   4    -0.238199010084E+03    0.38137E-03   -0.24113E-03 30736   0.181E-01    0.727E-02
DAV:   5    -0.238198994693E+03    0.15391E-04   -0.38639E-04 31776   0.804E-02    0.341E-02
DAV:   6    -0.238199000969E+03   -0.62758E-05   -0.12893E-04 32480   0.405E-02    0.166E-02
DAV:   7    -0.238198998318E+03    0.26508E-05   -0.20315E-05 30784   0.194E-02    0.753E-03
DAV:   8    -0.238198998478E+03   -0.16013E-06   -0.84653E-06 29792   0.950E-03
  21 F= -.23819900E+03 E0= -.23819900E+03  d E =-.342585E-01  mag=    -0.0000
       N       E                     dE             d eps       ncg     rms          rms(c)
DAV:   1    -0.237970835425E+03    0.22816E+00   -0.56502E+01 26112   0.275E+01    0.142E+00
DAV:   2    -0.238233526533E+03   -0.26269E+00   -0.33557E+00 26864   0.562E+00    0.736E-01
DAV:   3    -0.238228576143E+03    0.49504E-02   -0.69592E-02 33008   0.965E-01    0.414E-01
DAV:   4    -0.238226535201E+03    0.20409E-02   -0.11233E-02 30928   0.393E-01    0.168E-01
DAV:   5    -0.238226436340E+03    0.98861E-04   -0.19884E-03 32336   0.181E-01    0.727E-02
DAV:   6    -0.238226462183E+03   -0.25843E-04   -0.57317E-04 32360   0.883E-02    0.366E-02
DAV:   7    -0.238226451346E+03    0.10838E-04   -0.10959E-04 30816   0.442E-02    0.142E-02
DAV:   8    -0.238226451902E+03   -0.55632E-06   -0.30203E-05 30496   0.191E-02    0.412E-03
DAV:   9    -0.238226452064E+03   -0.16152E-06   -0.31685E-06 26080   0.650E-03
  22 F= -.23822645E+03 E0= -.23822645E+03  d E =-.617120E-01  mag=     0.0000
       N       E                     dE             d eps       ncg     rms          rms(c)
DAV:   1    -0.238216265835E+03    0.10186E-01   -0.79160E+00 26112   0.101E+01    0.515E-01
DAV:   2    -0.238250839237E+03   -0.34573E-01   -0.44073E-01 26976   0.202E+00    0.271E-01
DAV:   3    -0.238250079968E+03    0.75927E-03   -0.97416E-03 32528   0.361E-01    0.151E-01
DAV:   4    -0.238249821243E+03    0.25872E-03   -0.16930E-03 30928   0.150E-01    0.633E-02
DAV:   5    -0.238249810442E+03    0.10801E-04   -0.27526E-04 32192   0.662E-02    0.279E-02
DAV:   6    -0.238249813520E+03   -0.30778E-05   -0.72684E-05 32656   0.323E-02    0.138E-02
DAV:   7    -0.238249811807E+03    0.17130E-05   -0.15944E-05 30848   0.163E-02    0.596E-03
DAV:   8    -0.238249811834E+03   -0.27320E-07   -0.52300E-06 29008   0.755E-03
  23 F= -.23824981E+03 E0= -.23824981E+03  d E =-.233598E-01  mag=     0.0000
       N       E                     dE             d eps       ncg     rms          rms(c)
DAV:   1    -0.238173360074E+03    0.76452E-01   -0.21333E+01 26112   0.166E+01    0.847E-01
DAV:   2    -0.238267821626E+03   -0.94462E-01   -0.12076E+00 27232   0.333E+00    0.447E-01
DAV:   3    -0.238265608688E+03    0.22129E-02   -0.27605E-02 32560   0.609E-01    0.247E-01
DAV:   4    -0.238264876451E+03    0.73224E-03   -0.45631E-03 31072   0.246E-01    0.107E-01
DAV:   5    -0.238264830101E+03    0.46350E-04   -0.78544E-04 32432   0.112E-01    0.449E-02
DAV:   6    -0.238264836731E+03   -0.66292E-05   -0.19677E-04 33280   0.546E-02    0.232E-02
DAV:   7    -0.238264832800E+03    0.39302E-05   -0.48186E-05 30784   0.273E-02    0.103E-02
DAV:   8    -0.238264832422E+03    0.37870E-06   -0.12368E-05 30616   0.123E-02    0.270E-03
DAV:   9    -0.238264832511E+03   -0.89617E-07   -0.14554E-06 16448   0.439E-03
  24 F= -.23826483E+03 E0= -.23826483E+03  d E =-.383804E-01  mag=    -0.0000
       N       E                     dE             d eps       ncg     rms          rms(c)
DAV:   1    -0.238283002851E+03   -0.18170E-01   -0.80866E-01 26176   0.331E+00    0.196E-01
DAV:   2    -0.238285880172E+03   -0.28773E-02   -0.42927E-02 29584   0.673E-01    0.124E-01
DAV:   3    -0.238285579324E+03    0.30085E-03   -0.10315E-03 32400   0.131E-01    0.689E-02
DAV:   4    -0.238285483909E+03    0.95415E-04   -0.61603E-04 31488   0.851E-02    0.228E-02
DAV:   5    -0.238285475990E+03    0.79186E-05   -0.81661E-05 32656   0.379E-02    0.140E-02
DAV:   6    -0.238285477218E+03   -0.12276E-05   -0.45872E-05 30656   0.211E-02    0.800E-03
DAV:   7    -0.238285476687E+03    0.53066E-06   -0.44610E-06 28288   0.886E-03
  25 F= -.23828548E+03 E0= -.23828548E+03  d E =-.206442E-01  mag=    -0.0000
       N       E                     dE             d eps       ncg     rms          rms(c)
DAV:   1    -0.238291613859E+03   -0.61366E-02   -0.26488E+00 26112   0.600E+00    0.354E-01
DAV:   2    -0.238301059723E+03   -0.94459E-02   -0.14081E-01 29584   0.122E+00    0.224E-01
DAV:   3    -0.238300076761E+03    0.98296E-03   -0.34153E-03 32320   0.239E-01    0.126E-01
DAV:   4    -0.238299758058E+03    0.31870E-03   -0.20680E-03 31472   0.156E-01    0.417E-02
DAV:   5    -0.238299730477E+03    0.27581E-04   -0.27236E-04 32672   0.693E-02    0.258E-02
DAV:   6    -0.238299733822E+03   -0.33446E-05   -0.15704E-04 30736   0.389E-02    0.147E-02
DAV:   7    -0.238299731965E+03    0.18567E-05   -0.15710E-05 33664   0.164E-02    0.686E-03
DAV:   8    -0.238299732819E+03   -0.85457E-06   -0.86933E-06 29176   0.911E-03
  26 F= -.23829973E+03 E0= -.23829973E+03  d E =-.349003E-01  mag=     0.0000
       N       E                     dE             d eps       ncg     rms          rms(c)
DAV:   1    -0.238309920826E+03   -0.10189E-01   -0.65100E-01 26144   0.296E+00    0.178E-01
DAV:   2    -0.238311979793E+03   -0.20590E-02   -0.31755E-02 29224   0.571E-01    0.110E-01
DAV:   3    -0.238311718590E+03    0.26120E-03   -0.68193E-04 32624   0.103E-01    0.558E-02
DAV:   4    -0.238311653845E+03    0.64745E-04   -0.32983E-04 31168   0.620E-02    0.157E-02
DAV:   5    -0.238311652097E+03    0.17482E-05   -0.49150E-05 31368   0.274E-02    0.957E-03
DAV:   6    -0.238311652671E+03   -0.57459E-06   -0.16649E-05 30984   0.126E-02    0.542E-03
DAV:   7    -0.238311652383E+03    0.28865E-06   -0.13027E-06 16696   0.564E-03
  27 F= -.23831165E+03 E0= -.23831165E+03  d E =-.119196E-01  mag=     0.0000
       N       E                     dE             d eps       ncg     rms          rms(c)
DAV:   1    -0.238313988916E+03   -0.23362E-02   -0.30371E+00 26112   0.640E+00    0.384E-01
DAV:   2    -0.238323623812E+03   -0.96349E-02   -0.14849E-01 29176   0.123E+00    0.238E-01
DAV:   3    -0.238322405138E+03    0.12187E-02   -0.31911E-03 32640   0.223E-01    0.121E-01
DAV:   4    -0.238322093670E+03    0.31147E-03   -0.15519E-03 31184   0.135E-01    0.338E-02
DAV:   5    -0.238322085329E+03    0.83407E-05   -0.23245E-04 31328   0.596E-02    0.209E-02
DAV:   6    -0.238322087531E+03   -0.22015E-05   -0.79515E-05 31240   0.276E-02    0.118E-02
DAV:   7    -0.238322086147E+03    0.13838E-05   -0.79291E-06 33760   0.124E-02    0.591E-03
DAV:   8    -0.238322086724E+03   -0.57689E-06   -0.53342E-06 26664   0.758E-03
  28 F= -.23832209E+03 E0= -.23832209E+03  d E =-.223539E-01  mag=     0.0000
       N       E                     dE             d eps       ncg     rms          rms(c)
DAV:   1    -0.238328370167E+03   -0.62840E-02   -0.63687E-01 26144   0.294E+00    0.235E-01
DAV:   2    -0.238330090909E+03   -0.17207E-02   -0.36425E-02 27984   0.578E-01    0.112E-01
DAV:   3    -0.238329885895E+03    0.20501E-03   -0.10961E-03 32512   0.119E-01    0.490E-02
DAV:   4    -0.238329843393E+03    0.42502E-04   -0.20613E-04 30960   0.504E-02    0.199E-02
DAV:   5    -0.238329836137E+03    0.72553E-05   -0.28156E-05 31776   0.231E-02    0.787E-03
DAV:   6    -0.238329835540E+03    0.59696E-06   -0.94785E-06 31872   0.115E-02
  29 F= -.23832984E+03 E0= -.23832984E+03  d E =-.774882E-02  mag=    -0.0000
       N       E                     dE             d eps       ncg     rms          rms(c)
DAV:   1    -0.238330919619E+03   -0.10835E-02   -0.63142E-01 26144   0.293E+00    0.234E-01
DAV:   2    -0.238332639193E+03   -0.17196E-02   -0.36204E-02 28048   0.576E-01    0.111E-01
DAV:   3    -0.238332438189E+03    0.20100E-03   -0.10915E-03 32496   0.119E-01    0.489E-02
DAV:   4    -0.238332396137E+03    0.42051E-04   -0.20234E-04 30944   0.501E-02    0.200E-02
DAV:   5    -0.238332388896E+03    0.72411E-05   -0.28250E-05 31792   0.233E-02    0.788E-03
DAV:   6    -0.238332388315E+03    0.58129E-06   -0.95375E-06 31872   0.115E-02
  30 F= -.23833239E+03 E0= -.23833239E+03  d E =-.103016E-01  mag=    -0.0000
       N       E                     dE             d eps       ncg     rms          rms(c)
DAV:   1    -0.238334666117E+03   -0.22772E-02   -0.36489E-01 26144   0.224E+00    0.141E-01
DAV:   2    -0.238336038526E+03   -0.13724E-02   -0.20318E-02 28976   0.454E-01    0.814E-02
DAV:   3    -0.238335922303E+03    0.11622E-03   -0.56853E-04 32464   0.921E-02    0.426E-02
DAV:   4    -0.238335885296E+03    0.37007E-04   -0.11817E-04 31136   0.385E-02    0.127E-02
DAV:   5    -0.238335883714E+03    0.15814E-05   -0.16698E-05 32776   0.182E-02    0.613E-03
DAV:   6    -0.238335884221E+03   -0.50709E-06   -0.73981E-06 30576   0.943E-03
  31 F= -.23833588E+03 E0= -.23833588E+03  d E =-.349591E-02  mag=    -0.0000
       N       E                     dE             d eps       ncg     rms          rms(c)
DAV:   1    -0.238335802439E+03    0.81275E-04   -0.38240E-01 26112   0.229E+00    0.144E-01
DAV:   2    -0.238337247451E+03   -0.14450E-02   -0.21294E-02 29008   0.465E-01    0.830E-02
DAV:   3    -0.238337125889E+03    0.12156E-03   -0.58907E-04 32480   0.939E-02    0.435E-02
DAV:   4    -0.238337087037E+03    0.38852E-04   -0.12324E-04 31152   0.394E-02    0.130E-02
DAV:   5    -0.238337085449E+03    0.15881E-05   -0.17373E-05 32792   0.186E-02    0.628E-03
DAV:   6    -0.238337085998E+03   -0.54979E-06   -0.77966E-06 30624   0.967E-03
  32 F= -.23833709E+03 E0= -.23833709E+03  d E =-.469768E-02  mag=    -0.0000
       N       E                     dE             d eps       ncg     rms          rms(c)
DAV:   1    -0.238337847494E+03   -0.76205E-03   -0.65784E-01 26112   0.297E+00    0.156E-01
DAV:   2    -0.238339808089E+03   -0.19606E-02   -0.29762E-02 28192   0.548E-01    0.918E-02
DAV:   3    -0.238339662724E+03    0.14536E-03   -0.76023E-04 32608   0.109E-01    0.518E-02
DAV:   4    -0.238339610400E+03    0.52325E-04   -0.29462E-04 31184   0.624E-02    0.180E-02
DAV:   5    -0.238339607962E+03    0.24372E-05   -0.47959E-05 31656   0.288E-02    0.112E-02
DAV:   6    -0.238339608336E+03   -0.37365E-06   -0.20723E-05 30896   0.147E-02    0.631E-03
DAV:   7    -0.238339608320E+03    0.16077E-07   -0.20443E-06 19200   0.606E-03
  33 F= -.23833961E+03 E0= -.23833961E+03  d E =-.252232E-02  mag=    -0.0000
       N       E                     dE             d eps       ncg     rms          rms(c)
DAV:   1    -0.238339597174E+03    0.11162E-04   -0.63030E-02 26240   0.918E-01    0.484E-02
DAV:   2    -0.238339786197E+03   -0.18902E-03   -0.28608E-03 28448   0.170E-01    0.284E-02
DAV:   3    -0.238339773185E+03    0.13011E-04   -0.74700E-05 32608   0.342E-02    0.161E-02
DAV:   4    -0.238339768740E+03    0.44454E-05   -0.27871E-05 31168   0.193E-02    0.565E-03
DAV:   5    -0.238339768675E+03    0.64450E-07   -0.44356E-06 27032   0.898E-03
  34 F= -.23833977E+03 E0= -.23833977E+03  d E =-.268268E-02  mag=    -0.0000
       N       E                     dE             d eps       ncg     rms          rms(c)
DAV:   1    -0.238340539158E+03   -0.77042E-03   -0.23798E-01 26144   0.177E+00    0.118E-01
DAV:   2    -0.238341070689E+03   -0.53153E-03   -0.97412E-03 27712   0.313E-01    0.660E-02
DAV:   3    -0.238340981160E+03    0.89530E-04   -0.38956E-04 32544   0.730E-02    0.300E-02
DAV:   4    -0.238340963870E+03    0.17290E-04   -0.69543E-05 31712   0.302E-02    0.128E-02
DAV:   5    -0.238340960306E+03    0.35642E-05   -0.15907E-05 31600   0.151E-02    0.480E-03
DAV:   6    -0.238340960128E+03    0.17728E-06   -0.33885E-06 24640   0.664E-03
  35 F= -.23834096E+03 E0= -.23834096E+03  d E =-.119145E-02  mag=    -0.0000
       N       E                     dE             d eps       ncg     rms          rms(c)
DAV:   1    -0.238340992386E+03   -0.32080E-04   -0.56063E-02 26176   0.857E-01    0.572E-02
DAV:   2    -0.238341118911E+03   -0.12653E-03   -0.23020E-03 28000   0.152E-01    0.319E-02
DAV:   3    -0.238341097395E+03    0.21517E-04   -0.90508E-05 32544   0.352E-02    0.146E-02
DAV:   4    -0.238341092925E+03    0.44695E-05   -0.16077E-05 31760   0.145E-02    0.623E-03
DAV:   5    -0.238341091749E+03    0.11763E-05   -0.36814E-06 27856   0.731E-03    0.233E-03
DAV:   6    -0.238341091625E+03    0.12398E-06   -0.77230E-07 16320   0.336E-03
  36 F= -.23834109E+03 E0= -.23834109E+03  d E =-.132295E-02  mag=    -0.0000
       N       E                     dE             d eps       ncg     rms          rms(c)
DAV:   1    -0.238341457564E+03   -0.36582E-03   -0.22781E-01 26144   0.171E+00    0.819E-02
DAV:   2    -0.238342126978E+03   -0.66941E-03   -0.92085E-03 28416   0.301E-01    0.465E-02
DAV:   3    -0.238342087837E+03    0.39141E-04   -0.21557E-04 32576   0.562E-02    0.257E-02
DAV:   4    -0.238342075806E+03    0.12032E-04   -0.58676E-05 31072   0.281E-02    0.926E-03
DAV:   5    -0.238342076213E+03   -0.40713E-06   -0.11840E-05 31528   0.127E-02    0.505E-03
DAV:   6    -0.238342076337E+03   -0.12397E-06   -0.19434E-06 19024   0.545E-03
  37 F= -.23834208E+03 E0= -.23834208E+03  d E =-.984712E-03  mag=    -0.0000
       N       E                     dE             d eps       ncg     rms          rms(c)
DAV:   1    -0.238341811206E+03    0.26501E-03   -0.25080E-01 26128   0.179E+00    0.861E-02
DAV:   2    -0.238342549267E+03   -0.73806E-03   -0.10146E-02 28528   0.316E-01    0.488E-02
DAV:   3    -0.238342505944E+03    0.43323E-04   -0.23532E-04 32560   0.588E-02    0.269E-02
DAV:   4    -0.238342492702E+03    0.13242E-04   -0.64927E-05 31120   0.296E-02    0.964E-03
DAV:   5    -0.238342493184E+03   -0.48210E-06   -0.13009E-05 31608   0.133E-02    0.531E-03
DAV:   6    -0.238342493319E+03   -0.13409E-06   -0.21338E-06 19856   0.568E-03
  38 F= -.23834249E+03 E0= -.23834249E+03  d E =-.140169E-02  mag=    -0.0000
       N       E                     dE             d eps       ncg     rms          rms(c)
DAV:   1    -0.238342825735E+03   -0.33255E-03   -0.14207E-01 26144   0.132E+00    0.727E-02
DAV:   2    -0.238343202175E+03   -0.37644E-03   -0.57546E-03 28864   0.239E-01    0.421E-02
DAV:   3    -0.238343166499E+03    0.35675E-04   -0.13984E-04 32528   0.451E-02    0.237E-02
DAV:   4    -0.238343155456E+03    0.11043E-04   -0.49453E-05 30992   0.252E-02    0.704E-03
DAV:   5    -0.238343155419E+03    0.36732E-07   -0.85481E-06 30784   0.113E-02
  39 F= -.23834316E+03 E0= -.23834316E+03  d E =-.662101E-03  mag=     0.0000
       N       E                     dE             d eps       ncg     rms          rms(c)
DAV:   1    -0.238343150927E+03    0.45295E-05   -0.36530E-02 26176   0.670E-01    0.374E-02
DAV:   2    -0.238343249736E+03   -0.98810E-04   -0.14901E-03 28880   0.121E-01    0.214E-02
DAV:   3    -0.238343240737E+03    0.89999E-05   -0.34528E-05 32528   0.226E-02    0.121E-02
DAV:   4    -0.238343238005E+03    0.27312E-05   -0.13783E-05 30992   0.132E-02    0.367E-03
DAV:   5    -0.238343238005E+03    0.40018E-10   -0.22020E-06 21048   0.593E-03
  40 F= -.23834324E+03 E0= -.23834324E+03  d E =-.744687E-03  mag=    -0.0000
       N       E                     dE             d eps       ncg     rms          rms(c)
DAV:   1    -0.238343283822E+03   -0.45817E-04   -0.14174E-01 26176   0.129E+00    0.644E-02
DAV:   2    -0.238343539511E+03   -0.25569E-03   -0.41334E-03 29184   0.203E-01    0.359E-02
DAV:   3    -0.238343503223E+03    0.36288E-04   -0.11974E-04 32608   0.461E-02    0.200E-02
DAV:   4    -0.238343492052E+03    0.11171E-04   -0.59323E-05 31016   0.276E-02    0.713E-03
DAV:   5    -0.238343491373E+03    0.67873E-06   -0.94894E-06 31296   0.124E-02
  41 F= -.23834349E+03 E0= -.23834349E+03  d E =-.253368E-03  mag=     0.0000
       N       E                     dE             d eps       ncg     rms          rms(c)
DAV:   1    -0.238343492462E+03   -0.41036E-06   -0.17487E-03 26880   0.143E-01    0.683E-03
DAV:   2    -0.238343495426E+03   -0.29642E-05   -0.50276E-05 29184   0.228E-02    0.410E-03
DAV:   3    -0.238343495059E+03    0.36787E-06   -0.17921E-06 22456   0.533E-03
  42 F= -.23834350E+03 E0= -.23834350E+03  d E =-.257053E-03  mag=     0.0000
       N       E                     dE             d eps       ncg     rms          rms(c)
DAV:   1    -0.238343552847E+03   -0.57420E-04   -0.62614E-02 26176   0.845E-01    0.433E-02
DAV:   2    -0.238343646867E+03   -0.94021E-04   -0.15022E-03 30080   0.123E-01    0.297E-02
DAV:   3    -0.238343625418E+03    0.21450E-04   -0.55317E-05 32440   0.304E-02    0.162E-02
DAV:   4    -0.238343618999E+03    0.64190E-05   -0.31601E-05 30784   0.192E-02    0.535E-03
DAV:   5    -0.238343618800E+03    0.19843E-06   -0.46759E-06 27728   0.847E-03
  43 F= -.23834362E+03 E0= -.23834362E+03  d E =-.123742E-03  mag=    -0.0000
       N       E                     dE             d eps       ncg     rms          rms(c)
DAV:   1    -0.238343624929E+03   -0.59300E-05   -0.27087E-03 26368   0.176E-01    0.882E-03
DAV:   2    -0.238343628395E+03   -0.34658E-05   -0.63103E-05 30016   0.254E-02    0.636E-03
DAV:   3    -0.238343627328E+03    0.10671E-05   -0.26286E-06 25184   0.661E-03    0.334E-03
DAV:   4    -0.238343627016E+03    0.31145E-06   -0.12261E-06 17392   0.409E-03
  44 F= -.23834363E+03 E0= -.23834363E+03  d E =-.131958E-03  mag=    -0.0000
       N       E                     dE             d eps       ncg     rms          rms(c)
DAV:   1    -0.238343680738E+03   -0.53410E-04   -0.23117E-02 26176   0.505E-01    0.263E-02
DAV:   2    -0.238343725258E+03   -0.44520E-04   -0.66618E-04 29840   0.814E-02    0.165E-02
DAV:   3    -0.238343719709E+03    0.55483E-05   -0.23806E-05 32464   0.189E-02    0.893E-03
DAV:   4    -0.238343718191E+03    0.15181E-05   -0.77841E-06 30944   0.978E-03    0.318E-03
DAV:   5    -0.238343718163E+03    0.28066E-07   -0.11961E-06 17520   0.468E-03
  45 F= -.23834372E+03 E0= -.23834372E+03  d E =-.911472E-04  mag=    -0.0000
       N       E                     dE             d eps       ncg     rms          rms(c)
DAV:   1    -0.238343719852E+03   -0.16611E-05   -0.17624E-03 26656   0.139E-01    0.760E-03
DAV:   2    -0.238343723458E+03   -0.36059E-05   -0.51134E-05 29968   0.224E-02    0.461E-03
DAV:   3    -0.238343723088E+03    0.37051E-06   -0.15262E-06 22368   0.518E-03
  46 F= -.23834372E+03 E0= -.23834372E+03  d E =-.960717E-04  mag=    -0.0000
       N       E                     dE             d eps       ncg     rms          rms(c)
DAV:   1    -0.238343765992E+03   -0.42533E-04   -0.14395E-02 26176   0.372E-01    0.232E-02
DAV:   2    -0.238343775691E+03   -0.96999E-05   -0.26920E-04 30912   0.486E-02    0.150E-02
DAV:   3    -0.238343768750E+03    0.69412E-05   -0.16775E-05 31344   0.154E-02    0.698E-03
DAV:   4    -0.238343767308E+03    0.14425E-05   -0.48305E-06 26288   0.759E-03    0.237E-03
DAV:   5    -0.238343767140E+03    0.16753E-06   -0.89299E-07 17408   0.357E-03
  47 F= -.23834377E+03 E0= -.23834377E+03  d E =-.440524E-04  mag=     0.0000
