       N       E                     dE             d eps       ncg     rms          rms(c)
DAV:   1     0.767540564998E+03    0.76754E+03   -0.60287E+04 23936   0.135E+03
DAV:   2    -0.185649152199E+03   -0.95319E+03   -0.90907E+03 33456   0.331E+02
DAV:   3    -0.274789822620E+03   -0.89141E+02   -0.88511E+02 34152   0.108E+02
DAV:   4    -0.277380942776E+03   -0.25911E+01   -0.25816E+01 33384   0.202E+01
DAV:   5    -0.277464260691E+03   -0.83318E-01   -0.83276E-01 34800   0.363E+00    0.351E+01
DAV:   6    -0.232859298367E+03    0.44605E+02   -0.19177E+02 37760   0.487E+01    0.957E+00
DAV:   7    -0.233138520620E+03   -0.27922E+00   -0.14558E+01 36896   0.150E+01    0.665E+00
DAV:   8    -0.232773069072E+03    0.36545E+00   -0.13618E+00 37216   0.545E+00    0.344E+00
DAV:   9    -0.232650148318E+03    0.12292E+00   -0.48115E-01 30240   0.344E+00    0.854E-01
DAV:  10    -0.232645435818E+03    0.47125E-02   -0.19524E-01 38112   0.184E+00    0.473E-01
DAV:  11    -0.232643921085E+03    0.15147E-02   -0.18077E-02 37576   0.657E-01    0.296E-01
DAV:  12    -0.232643981084E+03   -0.59999E-04   -0.10307E-02 38632   0.420E-01    0.102E-01
DAV:  13    -0.232643928355E+03    0.52729E-04   -0.17180E-03 33952   0.167E-01    0.658E-02
DAV:  14    -0.232643916560E+03    0.11794E-04   -0.34638E-04 37936   0.832E-02    0.320E-02
DAV:  15    -0.232643915092E+03    0.14685E-05   -0.16352E-04 36752   0.511E-02    0.153E-02
DAV:  16    -0.232643913304E+03    0.17875E-05   -0.32285E-05 33456   0.224E-02    0.557E-03
DAV:  17    -0.232643914087E+03   -0.78298E-06   -0.69869E-06 30984   0.115E-02
   1 F= -.23264391E+03 E0= -.23264391E+03  d E =-.232644E+03  mag=     0.0000
       N       E                     dE             d eps       ncg     rms          rms(c)
DAV:   1    -0.230537894245E+03    0.21060E+01   -0.72045E+02 25024   0.115E+02    0.509E+00
DAV:   2    -0.234264138506E+03   -0.37262E+01   -0.48992E+01 30680   0.280E+01    0.437E+00
DAV:   3    -0.233797868750E+03    0.46627E+00   -0.16897E+00 33888   0.615E+00    0.264E+00
DAV:   4    -0.233506204335E+03    0.29166E+00   -0.11234E+00 36360   0.495E+00    0.895E-01
DAV:   5    -0.233511938578E+03   -0.57342E-02   -0.37059E-01 32096   0.251E+00    0.776E-01
DAV:   6    -0.233505482710E+03    0.64559E-02   -0.89794E-02 29552   0.112E+00    0.435E-01
DAV:   7    -0.233502340525E+03    0.31422E-02   -0.15037E-02 33552   0.581E-01    0.227E-01
DAV:   8    -0.233500852948E+03    0.14876E-02   -0.53939E-03 31664   0.322E-01    0.908E-02
DAV:   9    -0.233500778782E+03    0.74166E-04   -0.16304E-03 34104   0.184E-01    0.471E-02
DAV:  10    -0.233500811082E+03   -0.32300E-04   -0.62617E-04 31360   0.936E-02    0.305E-02
DAV:  11    -0.233500799050E+03    0.12032E-04   -0.77463E-05 32144   0.433E-02    0.135E-02
DAV:  12    -0.233500800763E+03   -0.17137E-05   -0.43892E-05 31864   0.243E-02    0.892E-03
DAV:  13    -0.233500800132E+03    0.63163E-06   -0.57771E-06 26168   0.117E-02
   2 F= -.23350080E+03 E0= -.23350080E+03  d E =-.856886E+00  mag=     0.0000
       N       E                     dE             d eps       ncg     rms          rms(c)
DAV:   1    -0.234111264818E+03   -0.61046E+00   -0.14044E+02 25408   0.512E+01    0.253E+00
DAV:   2    -0.234639021346E+03   -0.52776E+00   -0.80948E+00 29648   0.116E+01    0.174E+00
DAV:   3    -0.234553764322E+03    0.85257E-01   -0.40534E-01 36472   0.313E+00    0.981E-01
DAV:   4    -0.234522933931E+03    0.30830E-01   -0.15504E-01 30680   0.170E+00    0.337E-01
DAV:   5    -0.234521504041E+03    0.14299E-02   -0.32837E-02 34520   0.894E-01    0.257E-01
DAV:   6    -0.234520791581E+03    0.71246E-03   -0.13787E-02 29504   0.437E-01    0.150E-01
DAV:   7    -0.234520266503E+03    0.52508E-03   -0.14767E-03 33240   0.236E-01    0.807E-02
DAV:   8    -0.234520098146E+03    0.16836E-03   -0.12161E-03 34168   0.160E-01    0.295E-02
DAV:   9    -0.234520107865E+03   -0.97197E-05   -0.30707E-04 31784   0.719E-02    0.222E-02
DAV:  10    -0.234520105083E+03    0.27827E-05   -0.57133E-05 31984   0.307E-02    0.978E-03
DAV:  11    -0.234520105773E+03   -0.69024E-06   -0.15379E-05 32424   0.149E-02    0.575E-03
DAV:  12    -0.234520105434E+03    0.33912E-06   -0.22438E-06 18232   0.798E-03
   3 F= -.23452011E+03 E0= -.23452011E+03  d E =-.187619E+01  mag=     0.0000
       N       E                     dE             d eps       ncg     rms          rms(c)
DAV:   1    -0.234338335933E+03    0.18177E+00   -0.96871E+01 25040   0.416E+01    0.193E+00
DAV:   2    -0.234739276418E+03   -0.40094E+00   -0.53412E+00 31448   0.923E+00    0.134E+00
DAV:   3    -0.234709966944E+03    0.29309E-01   -0.19591E-01 32008   0.197E+00    0.775E-01
DAV:   4    -0.234697591249E+03    0.12376E-01   -0.90141E-02 34896   0.129E+00    0.274E-01
DAV:   5    -0.234697186772E+03    0.40448E-03   -0.15147E-02 31472   0.561E-01    0.172E-01
DAV:   6    -0.234697340208E+03   -0.15344E-03   -0.62865E-03 34608   0.299E-01    0.925E-02
DAV:   7    -0.234697325016E+03    0.15192E-04   -0.71360E-04 33416   0.136E-01    0.479E-02
DAV:   8    -0.234697366024E+03   -0.41008E-04   -0.33757E-04 34512   0.896E-02    0.245E-02
DAV:   9    -0.234697367495E+03   -0.14711E-05   -0.50567E-05 32840   0.361E-02    0.129E-02
DAV:  10    -0.234697367667E+03   -0.17207E-06   -0.31791E-05 35184   0.220E-02    0.524E-03
DAV:  11    -0.234697368212E+03   -0.54463E-06   -0.51485E-06 25272   0.973E-03
   4 F= -.23469737E+03 E0= -.23469737E+03  d E =-.177263E+00  mag=     0.0000
       N       E                     dE             d eps       ncg     rms          rms(c)
DAV:   1    -0.234721939000E+03   -0.24571E-01   -0.12962E+01 25744   0.153E+01    0.691E-01
DAV:   2    -0.234779323133E+03   -0.57384E-01   -0.74206E-01 29056   0.339E+00    0.482E-01
DAV:   3    -0.234775600953E+03    0.37222E-02   -0.28307E-02 32640   0.744E-01    0.289E-01
DAV:   4    -0.234773758484E+03    0.18425E-02   -0.13789E-02 34432   0.489E-01    0.100E-01
DAV:   5    -0.234773682050E+03    0.76434E-04   -0.22804E-03 30624   0.219E-01    0.683E-02
DAV:   6    -0.234773670008E+03    0.12041E-04   -0.10157E-03 33280   0.123E-01    0.342E-02
DAV:   7    -0.234773669746E+03    0.26268E-06   -0.14255E-04 31216   0.561E-02    0.183E-02
DAV:   8    -0.234773672207E+03   -0.24616E-05   -0.43793E-05 32960   0.307E-02    0.721E-03
DAV:   9    -0.234773672774E+03   -0.56703E-06   -0.68628E-06 30560   0.124E-02
   5 F= -.23477367E+03 E0= -.23477367E+03  d E =-.253567E+00  mag=    -0.0000
       N       E                     dE             d eps       ncg     rms          rms(c)
DAV:   1    -0.234833540506E+03   -0.59868E-01   -0.28173E+01 25024   0.212E+01    0.115E+00
DAV:   2    -0.234894870216E+03   -0.61330E-01   -0.10565E+00 32096   0.458E+00    0.746E-01
DAV:   3    -0.234880640653E+03    0.14230E-01   -0.43757E-02 32400   0.102E+00    0.397E-01
DAV:   4    -0.234876855955E+03    0.37847E-02   -0.26111E-02 32912   0.660E-01    0.139E-01
DAV:   5    -0.234876713138E+03    0.14282E-03   -0.46055E-03 31544   0.315E-01    0.912E-02
DAV:   6    -0.234876724626E+03   -0.11488E-04   -0.19238E-03 32448   0.160E-01    0.498E-02
DAV:   7    -0.234876694275E+03    0.30350E-04   -0.17902E-04 33128   0.734E-02    0.265E-02
DAV:   8    -0.234876701533E+03   -0.72579E-05   -0.15266E-04 35192   0.496E-02    0.162E-02
DAV:   9    -0.234876698162E+03    0.33714E-05   -0.16457E-05 32544   0.213E-02    0.900E-03
DAV:  10    -0.234876697784E+03    0.37761E-06   -0.13594E-05 32456   0.135E-02    0.257E-03
DAV:  11    -0.234876697910E+03   -0.12597E-06   -0.15282E-06 17168   0.643E-03
   6 F= -.23487670E+03 E0= -.23487670E+03  d E =-.103025E+00  mag=    -0.0000
       N       E                     dE             d eps       ncg     rms          rms(c)
DAV:   1    -0.234876799012E+03   -0.10123E-03   -0.41383E-02 25296   0.814E-01    0.435E-02
DAV:   2    -0.234876892173E+03   -0.93161E-04   -0.15777E-03 32144   0.177E-01    0.288E-02
DAV:   3    -0.234876870800E+03    0.21372E-04   -0.65139E-05 31536   0.394E-02    0.153E-02
DAV:   4    -0.234876864791E+03    0.60092E-05   -0.38023E-05 35368   0.257E-02    0.546E-03
DAV:   5    -0.234876864356E+03    0.43569E-06   -0.61789E-06 26688   0.114E-02
   7 F= -.23487686E+03 E0= -.23487686E+03  d E =-.103192E+00  mag=    -0.0000
       N       E                     dE             d eps       ncg     rms          rms(c)
DAV:   1    -0.234866932794E+03    0.99320E-02   -0.13152E+01 26272   0.168E+01    0.817E-01
DAV:   2    -0.234941153307E+03   -0.74221E-01   -0.95882E-01 25168   0.360E+00    0.458E-01
DAV:   3    -0.234940372086E+03    0.78122E-03   -0.44627E-02 37056   0.812E-01    0.261E-01
DAV:   4    -0.234939262698E+03    0.11094E-02   -0.56716E-03 32328   0.331E-01    0.892E-02
DAV:   5    -0.234939211375E+03    0.51323E-04   -0.12370E-03 31200   0.171E-01    0.521E-02
DAV:   6    -0.234939212210E+03   -0.83530E-06   -0.55085E-04 31872   0.104E-01    0.297E-02
DAV:   7    -0.234939216980E+03   -0.47706E-05   -0.13328E-04 32320   0.546E-02    0.225E-02
DAV:   8    -0.234939213203E+03    0.37775E-05   -0.37938E-05 30368   0.253E-02    0.737E-03
DAV:   9    -0.234939214742E+03   -0.15388E-05   -0.10987E-05 33752   0.155E-02    0.436E-03
DAV:  10    -0.234939214561E+03    0.18031E-06   -0.97096E-07 15184   0.534E-03
   8 F= -.23493921E+03 E0= -.23493921E+03  d E =-.623502E-01  mag=    -0.0000
       N       E                     dE             d eps       ncg     rms          rms(c)
DAV:   1    -0.234929699770E+03    0.95150E-02   -0.28300E+00 26352   0.781E+00    0.380E-01
DAV:   2    -0.234946190863E+03   -0.16491E-01   -0.21238E-01 25344   0.168E+00    0.213E-01
DAV:   3    -0.234946069825E+03    0.12104E-03   -0.10031E-02 36704   0.379E-01    0.123E-01
DAV:   4    -0.234945816588E+03    0.25324E-03   -0.12242E-03 31872   0.154E-01    0.424E-02
DAV:   5    -0.234945804035E+03    0.12553E-04   -0.27838E-04 31296   0.804E-02    0.244E-02
DAV:   6    -0.234945802901E+03    0.11339E-05   -0.11413E-04 31872   0.482E-02    0.135E-02
DAV:   7    -0.234945804286E+03   -0.13851E-05   -0.30112E-05 32624   0.255E-02    0.105E-02
DAV:   8    -0.234945803295E+03    0.99161E-06   -0.76699E-06 28976   0.116E-02
   9 F= -.23494580E+03 E0= -.23494580E+03  d E =-.689389E-01  mag=    -0.0000
       N       E                     dE             d eps       ncg     rms          rms(c)
DAV:   1    -0.234945698595E+03    0.10569E-03   -0.98346E+00 25840   0.136E+01    0.650E-01
DAV:   2    -0.234979443624E+03   -0.33745E-01   -0.49457E-01 28688   0.296E+00    0.358E-01
DAV:   3    -0.234977436904E+03    0.20067E-02   -0.21150E-02 31856   0.586E-01    0.204E-01
DAV:   4    -0.234976497009E+03    0.93990E-03   -0.49520E-03 35088   0.312E-01    0.735E-02
DAV:   5    -0.234976495641E+03    0.13679E-05   -0.10833E-03 33712   0.139E-01    0.428E-02
DAV:   6    -0.234976493932E+03    0.17096E-05   -0.30403E-04 32416   0.736E-02    0.245E-02
DAV:   7    -0.234976492104E+03    0.18278E-05   -0.47706E-05 31648   0.320E-02    0.156E-02
DAV:   8    -0.234976491365E+03    0.73929E-06   -0.25605E-05 34448   0.227E-02    0.403E-03
DAV:   9    -0.234976491688E+03   -0.32359E-06   -0.40870E-06 25552   0.924E-03
  10 F= -.23497649E+03 E0= -.23497649E+03  d E =-.306884E-01  mag=    -0.0000
       N       E                     dE             d eps       ncg     rms          rms(c)
DAV:   1    -0.234975868418E+03    0.62295E-03   -0.60106E-01 25648   0.336E+00    0.160E-01
DAV:   2    -0.234977943417E+03   -0.20750E-02   -0.30250E-02 28720   0.732E-01    0.891E-02
DAV:   3    -0.234977817065E+03    0.12635E-03   -0.13009E-03 31984   0.147E-01    0.505E-02
DAV:   4    -0.234977758381E+03    0.58684E-04   -0.29999E-04 35136   0.761E-02    0.186E-02
DAV:   5    -0.234977757909E+03    0.47219E-06   -0.66124E-05 33664   0.344E-02    0.105E-02
DAV:   6    -0.234977757844E+03    0.64787E-07   -0.18572E-05 32864   0.186E-02    0.605E-03
DAV:   7    -0.234977757772E+03    0.72483E-07   -0.28468E-06 21024   0.807E-03
  11 F= -.23497776E+03 E0= -.23497776E+03  d E =-.319545E-01  mag=    -0.0000
       N       E                     dE             d eps       ncg     rms          rms(c)
DAV:   1    -0.234969431078E+03    0.83268E-02   -0.72503E+00 26016   0.120E+01    0.629E-01
DAV:   2    -0.235000968118E+03   -0.31537E-01   -0.44319E-01 28352   0.258E+00    0.326E-01
DAV:   3    -0.234999606662E+03    0.13615E-02   -0.19565E-02 33264   0.568E-01    0.169E-01
DAV:   4    -0.234999178211E+03    0.42845E-03   -0.39406E-03 36976   0.272E-01    0.708E-02
DAV:   5    -0.234999140551E+03    0.37661E-04   -0.55751E-04 27840   0.100E-01    0.354E-02
DAV:   6    -0.234999152469E+03   -0.11918E-04   -0.24372E-04 33920   0.627E-02    0.215E-02
DAV:   7    -0.234999150233E+03    0.22354E-05   -0.34862E-05 29184   0.260E-02    0.133E-02
DAV:   8    -0.234999150649E+03   -0.41611E-06   -0.20351E-05 32000   0.177E-02    0.444E-03
DAV:   9    -0.234999150762E+03   -0.11296E-06   -0.21210E-06 17424   0.795E-03
  12 F= -.23499915E+03 E0= -.23499915E+03  d E =-.213930E-01  mag=     0.0000
       N       E                     dE             d eps       ncg     rms          rms(c)
DAV:   1    -0.234993931783E+03    0.52189E-02   -0.19357E+00 25936   0.621E+00    0.325E-01
DAV:   2    -0.235002440069E+03   -0.85083E-02   -0.11928E-01 28432   0.134E+00    0.168E-01
DAV:   3    -0.235002078233E+03    0.36184E-03   -0.52850E-03 32864   0.294E-01    0.869E-02
DAV:   4    -0.235001965345E+03    0.11289E-03   -0.10345E-03 37120   0.143E-01    0.365E-02
DAV:   5    -0.235001955619E+03    0.97261E-05   -0.15247E-04 28208   0.524E-02    0.182E-02
DAV:   6    -0.235001958733E+03   -0.31139E-05   -0.61626E-05 33520   0.323E-02    0.110E-02
DAV:   7    -0.235001958441E+03    0.29173E-06   -0.92313E-06 28352   0.135E-02
  13 F= -.23500196E+03 E0= -.23500196E+03  d E =-.242007E-01  mag=    -0.0000
       N       E                     dE             d eps       ncg     rms          rms(c)
DAV:   1    -0.234975548935E+03    0.26410E-01   -0.77540E+00 26128   0.128E+01    0.530E-01
DAV:   2    -0.235020201878E+03   -0.44653E-01   -0.53675E-01 25200   0.266E+00    0.282E-01
DAV:   3    -0.235020474974E+03   -0.27310E-03   -0.22780E-02 34704   0.590E-01    0.170E-01
DAV:   4    -0.235020148767E+03    0.32621E-03   -0.34843E-03 30672   0.251E-01    0.689E-02
DAV:   5    -0.235020155571E+03   -0.68043E-05   -0.67432E-04 31152   0.120E-01    0.389E-02
DAV:   6    -0.235020160511E+03   -0.49395E-05   -0.26684E-04 30096   0.659E-02    0.212E-02
DAV:   7    -0.235020159117E+03    0.13941E-05   -0.51998E-05 31152   0.344E-02    0.147E-02
DAV:   8    -0.235020157458E+03    0.16586E-05   -0.22683E-05 28704   0.187E-02    0.381E-03
DAV:   9    -0.235020157873E+03   -0.41530E-06   -0.59927E-06 28368   0.110E-02
  14 F= -.23502016E+03 E0= -.23502016E+03  d E =-.181994E-01  mag=    -0.0000
       N       E                     dE             d eps       ncg     rms          rms(c)
DAV:   1    -0.235003654796E+03    0.16503E-01   -0.35377E+00 26096   0.864E+00    0.360E-01
DAV:   2    -0.235023738538E+03   -0.20084E-01   -0.24196E-01 25200   0.178E+00    0.190E-01
DAV:   3    -0.235023848690E+03   -0.11015E-03   -0.10379E-02 34160   0.397E-01    0.115E-01
DAV:   4    -0.235023700103E+03    0.14859E-03   -0.16283E-03 31680   0.171E-01    0.469E-02
DAV:   5    -0.235023700751E+03   -0.64820E-06   -0.30834E-04 31360   0.806E-02    0.259E-02
DAV:   6    -0.235023703094E+03   -0.23433E-05   -0.11572E-04 30496   0.442E-02    0.141E-02
DAV:   7    -0.235023702748E+03    0.34595E-06   -0.22987E-05 30944   0.223E-02    0.102E-02
DAV:   8    -0.235023701832E+03    0.91649E-06   -0.10272E-05 27792   0.128E-02    0.263E-03
DAV:   9    -0.235023701980E+03   -0.14788E-06   -0.24301E-06 17888   0.775E-03
  15 F= -.23502370E+03 E0= -.23502370E+03  d E =-.217435E-01  mag=    -0.0000
       N       E                     dE             d eps       ncg     rms          rms(c)
DAV:   1    -0.234995195688E+03    0.28506E-01   -0.78035E+00 25904   0.127E+01    0.517E-01
DAV:   2    -0.235035276063E+03   -0.40080E-01   -0.48819E-01 25552   0.265E+00    0.259E-01
DAV:   3    -0.235035596368E+03   -0.32030E-03   -0.22255E-02 32800   0.582E-01    0.171E-01
DAV:   4    -0.235035204683E+03    0.39168E-03   -0.36595E-03 34784   0.262E-01    0.720E-02
DAV:   5    -0.235035196300E+03    0.83828E-05   -0.72521E-04 31296   0.119E-01    0.379E-02
DAV:   6    -0.235035197657E+03   -0.13567E-05   -0.23652E-04 32208   0.656E-02    0.214E-02
DAV:   7    -0.235035199349E+03   -0.16923E-05   -0.48128E-05 30192   0.284E-02    0.155E-02
DAV:   8    -0.235035198175E+03    0.11746E-05   -0.17161E-05 31424   0.198E-02    0.424E-03
DAV:   9    -0.235035198458E+03   -0.28313E-06   -0.56365E-06 28080   0.992E-03
  16 F= -.23503520E+03 E0= -.23503520E+03  d E =-.114965E-01  mag=     0.0000
       N       E                     dE             d eps       ncg     rms          rms(c)
DAV:   1    -0.235034554349E+03    0.64383E-03   -0.16191E-01 25568   0.183E+00    0.746E-02
DAV:   2    -0.235035384745E+03   -0.83040E-03   -0.10158E-02 25952   0.382E-01    0.373E-02
DAV:   3    -0.235035388254E+03   -0.35085E-05   -0.43007E-04 32896   0.809E-02    0.247E-02
DAV:   4    -0.235035379466E+03    0.87877E-05   -0.72462E-05 34848   0.368E-02    0.104E-02
DAV:   5    -0.235035379245E+03    0.22155E-06   -0.15534E-05 30816   0.172E-02    0.541E-03
DAV:   6    -0.235035379242E+03    0.27067E-08   -0.46793E-06 25872   0.950E-03
  17 F= -.23503538E+03 E0= -.23503538E+03  d E =-.116773E-01  mag=     0.0000
       N       E                     dE             d eps       ncg     rms          rms(c)
DAV:   1    -0.235004175458E+03    0.31204E-01   -0.53652E+00 26160   0.108E+01    0.498E-01
DAV:   2    -0.235038630244E+03   -0.34455E-01   -0.42569E-01 25568   0.228E+00    0.247E-01
DAV:   3    -0.235038857659E+03   -0.22742E-03   -0.19010E-02 36800   0.527E-01    0.144E-01
DAV:   4    -0.235038541434E+03    0.31623E-03   -0.19627E-03 36096   0.196E-01    0.624E-02
DAV:   5    -0.235038533738E+03    0.76958E-05   -0.56783E-04 28096   0.100E-01    0.296E-02
DAV:   6    -0.235038537845E+03   -0.41069E-05   -0.16639E-04 32288   0.545E-02    0.176E-02
DAV:   7    -0.235038541092E+03   -0.32468E-05   -0.34201E-05 31568   0.246E-02    0.124E-02
DAV:   8    -0.235038540895E+03    0.19622E-06   -0.95965E-06 30872   0.142E-02
  18 F= -.23503854E+03 E0= -.23503854E+03  d E =-.316165E-02  mag=    -0.0000
       N       E                     dE             d eps       ncg     rms          rms(c)
DAV:   1    -0.235035733168E+03    0.28079E-02   -0.69440E-01 26048   0.387E+00    0.177E-01
DAV:   2    -0.235040060325E+03   -0.43272E-02   -0.53857E-02 25456   0.816E-01    0.885E-02
DAV:   3    -0.235040074058E+03   -0.13733E-04   -0.23550E-03 37168   0.189E-01    0.509E-02
DAV:   4    -0.235040033199E+03    0.40859E-04   -0.24569E-04 35680   0.686E-02    0.220E-02
DAV:   5    -0.235040030647E+03    0.25516E-05   -0.70662E-05 28928   0.359E-02    0.103E-02
DAV:   6    -0.235040030884E+03   -0.23685E-06   -0.20395E-05 32416   0.189E-02    0.622E-03
DAV:   7    -0.235040030948E+03   -0.63700E-07   -0.36208E-06 22736   0.829E-03
  19 F= -.23504003E+03 E0= -.23504003E+03  d E =-.465171E-02  mag=     0.0000
       N       E                     dE             d eps       ncg     rms          rms(c)
DAV:   1    -0.235037442921E+03    0.25880E-02   -0.88844E-01 25392   0.412E+00    0.166E-01
DAV:   2    -0.235041850764E+03   -0.44078E-02   -0.52377E-02 27392   0.853E-01    0.102E-01
DAV:   3    -0.235041741254E+03    0.10951E-03   -0.21985E-03 34160   0.189E-01    0.652E-02
DAV:   4    -0.235041635546E+03    0.10571E-03   -0.49152E-04 34752   0.102E-01    0.220E-02
DAV:   5    -0.235041636853E+03   -0.13068E-05   -0.14235E-04 30288   0.513E-02    0.156E-02
DAV:   6    -0.235041635432E+03    0.14208E-05   -0.40536E-05 32816   0.261E-02    0.905E-03
DAV:   7    -0.235041635430E+03    0.17462E-08   -0.92010E-06 27344   0.130E-02
  20 F= -.23504164E+03 E0= -.23504164E+03  d E =-.160448E-02  mag=    -0.0000
       N       E                     dE             d eps       ncg     rms          rms(c)
DAV:   1    -0.235041570806E+03    0.64626E-04   -0.41011E-02 25328   0.885E-01    0.355E-02
DAV:   2    -0.235041774868E+03   -0.20406E-03   -0.24252E-03 27360   0.183E-01    0.219E-02
DAV:   3    -0.235041770002E+03    0.48664E-05   -0.10043E-04 33952   0.405E-02    0.141E-02
DAV:   4    -0.235041765145E+03    0.48568E-05   -0.23246E-05 34320   0.222E-02    0.472E-03
DAV:   5    -0.235041765240E+03   -0.95319E-07   -0.67696E-06 27520   0.111E-02
  21 F= -.23504177E+03 E0= -.23504177E+03  d E =-.173429E-02  mag=     0.0000
       N       E                     dE             d eps       ncg     rms          rms(c)
DAV:   1    -0.235041431959E+03    0.33319E-03   -0.20687E-01 25536   0.204E+00    0.844E-02
DAV:   2    -0.235042548372E+03   -0.11164E-02   -0.13793E-02 27040   0.441E-01    0.508E-02
DAV:   3    -0.235042523055E+03    0.25317E-04   -0.67741E-04 34320   0.104E-01    0.294E-02
DAV:   4    -0.235042507188E+03    0.15867E-04   -0.84254E-05 34032   0.416E-02    0.121E-02
DAV:   5    -0.235042505141E+03    0.20470E-05   -0.26018E-05 30320   0.219E-02    0.545E-03
DAV:   6    -0.235042505068E+03    0.72879E-07   -0.69950E-06 30224   0.117E-02
  22 F= -.23504251E+03 E0= -.23504251E+03  d E =-.739828E-03  mag=    -0.0000
       N       E                     dE             d eps       ncg     rms          rms(c)
DAV:   1    -0.235042504663E+03    0.47830E-06   -0.38648E-04 26816   0.881E-02    0.436E-03
DAV:   2    -0.235042506393E+03   -0.17300E-05   -0.24457E-05 27264   0.187E-02    0.248E-03
DAV:   3    -0.235042506366E+03    0.27408E-07   -0.16314E-06 21632   0.530E-03
  23 F= -.23504251E+03 E0= -.23504251E+03  d E =-.741125E-03  mag=     0.0000
       N       E                     dE             d eps       ncg     rms          rms(c)
DAV:   1    -0.235042556156E+03   -0.49763E-04   -0.38859E-02 25184   0.895E-01    0.419E-02
DAV:   2    -0.235042751908E+03   -0.19575E-03   -0.26576E-03 28688   0.208E-01    0.250E-02
DAV:   3    -0.235042747763E+03    0.41444E-05   -0.12195E-04 31648   0.440E-02    0.153E-02
DAV:   4    -0.235042744402E+03    0.33610E-05   -0.28698E-05 35872   0.232E-02    0.599E-03
DAV:   5    -0.235042744032E+03    0.37070E-06   -0.40280E-06 24272   0.954E-03
  24 F= -.23504274E+03 E0= -.23504274E+03  d E =-.237666E-03  mag=    -0.0000
       N       E                     dE             d eps       ncg     rms          rms(c)
DAV:   1    -0.235042743581E+03    0.82178E-06   -0.84808E-04 26192   0.132E-01    0.642E-03
DAV:   2    -0.235042748377E+03   -0.47968E-05   -0.59172E-05 29248   0.305E-02    0.425E-03
DAV:   3    -0.235042748259E+03    0.11796E-06   -0.22234E-06 23280   0.671E-03
  25 F= -.23504275E+03 E0= -.23504275E+03  d E =-.241894E-03  mag=    -0.0000
       N       E                     dE             d eps       ncg     rms          rms(c)
DAV:   1    -0.235042796048E+03   -0.47670E-04   -0.26333E-02 25024   0.649E-01    0.237E-02
DAV:   2    -0.235042864689E+03   -0.68641E-04   -0.89371E-04 32560   0.135E-01    0.155E-02
DAV:   3    -0.235042858092E+03    0.65973E-05   -0.30114E-05 32000   0.262E-02    0.826E-03
DAV:   4    -0.235042856158E+03    0.19335E-05   -0.11499E-05 32592   0.151E-02    0.288E-03
DAV:   5    -0.235042856256E+03   -0.97714E-07   -0.26056E-06 19504   0.735E-03
  26 F= -.23504286E+03 E0= -.23504286E+03  d E =-.107996E-03  mag=    -0.0000
       N       E                     dE             d eps       ncg     rms          rms(c)
DAV:   1    -0.235042856538E+03   -0.37986E-06   -0.61807E-04 25600   0.999E-02    0.386E-03
DAV:   2    -0.235042858362E+03   -0.18242E-05   -0.21660E-05 32624   0.204E-02    0.232E-03
DAV:   3    -0.235042858222E+03    0.14036E-06   -0.56299E-07 18880   0.410E-03
  27 F= -.23504286E+03 E0= -.23504286E+03  d E =-.109962E-03  mag=     0.0000
       N       E                     dE             d eps       ncg     rms          rms(c)
DAV:   1    -0.235042866776E+03   -0.84135E-05   -0.16247E-02 25024   0.506E-01    0.237E-02
DAV:   2    -0.235042903332E+03   -0.36557E-04   -0.56273E-04 31920   0.110E-01    0.156E-02
DAV:   3    -0.235042897387E+03    0.59451E-05   -0.24843E-05 32608   0.231E-02    0.841E-03
DAV:   4    -0.235042895595E+03    0.17925E-05   -0.11188E-05 34992   0.134E-02    0.315E-03
DAV:   5    -0.235042895406E+03    0.18877E-06   -0.15994E-06 18016   0.637E-03
  28 F= -.23504290E+03 E0= -.23504290E+03  d E =-.371842E-04  mag=    -0.0000
       N       E                     dE             d eps       ncg     rms          rms(c)
DAV:   1    -0.235042896371E+03   -0.77635E-06   -0.68869E-04 25024   0.104E-01    0.487E-03
DAV:   2    -0.235042897958E+03   -0.15872E-05   -0.23983E-05 31280   0.228E-02    0.316E-03
DAV:   3    -0.235042897798E+03    0.16045E-06   -0.11003E-06 17440   0.496E-03
  29 F= -.23504290E+03 E0= -.23504290E+03  d E =-.395761E-04  mag=    -0.0000
       N       E                     dE             d eps       ncg     rms          rms(c)
DAV:   1    -0.235042894907E+03    0.30509E-05   -0.76319E-03 25072   0.365E-01    0.137E-02
DAV:   2    -0.235042921440E+03   -0.26532E-04   -0.33341E-04 29456   0.756E-02    0.906E-03
DAV:   3    -0.235042919748E+03    0.16914E-05   -0.12666E-05 32464   0.161E-02    0.533E-03
DAV:   4    -0.235042919027E+03    0.72093E-06   -0.48918E-06 26752   0.934E-03
  30 F= -.23504292E+03 E0= -.23504292E+03  d E =-.212294E-04  mag=    -0.0000
