       N       E                     dE             d eps       ncg     rms          rms(c)
DAV:   1     0.198505534594E+04    0.19851E+04   -0.64922E+04 32824   0.125E+03
DAV:   2     0.812892641829E+02   -0.19038E+04   -0.18048E+04 32648   0.402E+02
DAV:   3    -0.255890525016E+03   -0.33718E+03   -0.31787E+03 49304   0.163E+02
DAV:   4    -0.283912493498E+03   -0.28022E+02   -0.27735E+02 54104   0.610E+01
DAV:   5    -0.284546669182E+03   -0.63418E+00   -0.63183E+00 54112   0.146E+01    0.449E+01
DAV:   6    -0.240674636323E+03    0.43872E+02   -0.19917E+02 52656   0.465E+01    0.142E+01
DAV:   7    -0.244891961822E+03   -0.42173E+01   -0.15171E+01 50040   0.171E+01    0.856E+00
DAV:   8    -0.246439510262E+03   -0.15475E+01   -0.17488E+00 50152   0.551E+00    0.348E+00
DAV:   9    -0.246809711470E+03   -0.37020E+00   -0.70591E-01 47192   0.262E+00    0.779E-01
DAV:  10    -0.246808606466E+03    0.11050E-02   -0.90361E-02 52872   0.118E+00    0.408E-01
DAV:  11    -0.246809852384E+03   -0.12459E-02   -0.12407E-02 52592   0.487E-01    0.201E-01
DAV:  12    -0.246810457244E+03   -0.60486E-03   -0.13462E-03 50704   0.167E-01    0.102E-01
DAV:  13    -0.246811061541E+03   -0.60430E-03   -0.10218E-03 45400   0.103E-01    0.371E-02
DAV:  14    -0.246811085617E+03   -0.24076E-04   -0.13408E-04 51808   0.532E-02    0.197E-02
DAV:  15    -0.246811093575E+03   -0.79587E-05   -0.71301E-05 50200   0.262E-02    0.901E-03
DAV:  16    -0.246811094587E+03   -0.10113E-05   -0.57048E-06 48568   0.107E-02    0.508E-03
DAV:  17    -0.246811095107E+03   -0.52028E-06   -0.22214E-06 45936   0.548E-03    0.199E-03
DAV:  18    -0.246811095242E+03   -0.13524E-06   -0.59797E-07 37368   0.290E-03    0.102E-03
DAV:  19    -0.246811095272E+03   -0.30135E-07   -0.44100E-08 23992   0.136E-03
   1 F= -.24681110E+03 E0= -.24681110E+03  d E =-.246811E+03  mag=     0.0001
       N       E                     dE             d eps       ncg     rms          rms(c)
DAV:   1    -0.246305864048E+03    0.50523E+00   -0.58529E+02 35744   0.761E+01    0.393E+00
DAV:   2    -0.248196464434E+03   -0.18906E+01   -0.27084E+01 50048   0.224E+01    0.347E+00
DAV:   3    -0.247954810007E+03    0.24165E+00   -0.11803E+00 52744   0.506E+00    0.198E+00
DAV:   4    -0.247854150841E+03    0.10066E+00   -0.48660E-01 47792   0.248E+00    0.668E-01
DAV:   5    -0.247849944943E+03    0.42059E-02   -0.95290E-02 48688   0.162E+00    0.311E-01
DAV:   6    -0.247848910824E+03    0.10341E-02   -0.19343E-02 52400   0.555E-01    0.174E-01
DAV:   7    -0.247848568027E+03    0.34280E-03   -0.91257E-03 52096   0.394E-01    0.126E-01
DAV:   8    -0.247848321705E+03    0.24632E-03   -0.87382E-04 51008   0.144E-01    0.614E-02
DAV:   9    -0.247848287109E+03    0.34596E-04   -0.36310E-04 48152   0.613E-02    0.242E-02
DAV:  10    -0.247848273940E+03    0.13169E-04   -0.39172E-05 52368   0.314E-02    0.985E-03
DAV:  11    -0.247848272607E+03    0.13336E-05   -0.15626E-05 54416   0.159E-02    0.469E-03
DAV:  12    -0.247848272708E+03   -0.10135E-06   -0.27469E-06 50256   0.640E-03    0.248E-03
DAV:  13    -0.247848272801E+03   -0.92792E-07   -0.10142E-06 44104   0.317E-03    0.139E-03
DAV:  14    -0.247848272787E+03    0.13952E-07   -0.18150E-07 25472   0.239E-03
   2 F= -.24784827E+03 E0= -.24784827E+03  d E =-.103718E+01  mag=     0.0000
       N       E                     dE             d eps       ncg     rms          rms(c)
DAV:   1    -0.247916768577E+03   -0.68496E-01   -0.39116E+01 34904   0.199E+01    0.121E+00
DAV:   2    -0.247970657845E+03   -0.53889E-01   -0.12537E+00 50048   0.566E+00    0.698E-01
DAV:   3    -0.247960858879E+03    0.97990E-02   -0.56466E-02 50736   0.120E+00    0.336E-01
DAV:   4    -0.247957004241E+03    0.38546E-02   -0.18320E-02 48144   0.535E-01    0.102E-01
DAV:   5    -0.247957265967E+03   -0.26173E-03   -0.51642E-03 48000   0.326E-01    0.700E-02
DAV:   6    -0.247957239199E+03    0.26768E-04   -0.66833E-04 53768   0.959E-02    0.287E-02
DAV:   7    -0.247957232209E+03    0.69903E-05   -0.47682E-05 50208   0.416E-02    0.169E-02
DAV:   8    -0.247957233545E+03   -0.13362E-05   -0.20742E-05 50688   0.222E-02    0.681E-03
DAV:   9    -0.247957234192E+03   -0.64713E-06   -0.78684E-06 49976   0.118E-02    0.269E-03
DAV:  10    -0.247957234387E+03   -0.19500E-06   -0.20792E-06 43640   0.500E-03    0.219E-03
DAV:  11    -0.247957234424E+03   -0.37344E-07   -0.18918E-07 24800   0.203E-03
   3 F= -.24795723E+03 E0= -.24795723E+03  d E =-.114614E+01  mag=     0.0000
       N       E                     dE             d eps       ncg     rms          rms(c)
DAV:   1    -0.248061640830E+03   -0.10441E+00   -0.62781E+01 39560   0.360E+01    0.236E+00
DAV:   2    -0.248247827438E+03   -0.18619E+00   -0.35540E+00 46704   0.706E+00    0.127E+00
DAV:   3    -0.248215211054E+03    0.32616E-01   -0.19484E-01 53768   0.180E+00    0.554E-01
DAV:   4    -0.248209803174E+03    0.54079E-02   -0.32293E-02 50112   0.782E-01    0.193E-01
DAV:   5    -0.248209203576E+03    0.59960E-03   -0.36604E-03 51384   0.279E-01    0.919E-02
DAV:   6    -0.248209180892E+03    0.22684E-04   -0.14759E-03 54288   0.160E-01    0.522E-02
DAV:   7    -0.248209176023E+03    0.48693E-05   -0.40086E-04 49992   0.735E-02    0.351E-02
DAV:   8    -0.248209170619E+03    0.54037E-05   -0.12130E-04 47664   0.329E-02    0.129E-02
DAV:   9    -0.248209169804E+03    0.81489E-06   -0.15411E-05 49768   0.190E-02    0.591E-03
DAV:  10    -0.248209169983E+03   -0.17934E-06   -0.10312E-05 48936   0.108E-02    0.371E-03
DAV:  11    -0.248209169870E+03    0.11340E-06   -0.21689E-06 43936   0.499E-03    0.284E-03
DAV:  12    -0.248209169730E+03    0.14012E-06   -0.75369E-07 39408   0.276E-03    0.864E-04
DAV:  13    -0.248209169682E+03    0.48252E-07   -0.82624E-08 22248   0.145E-03
   4 F= -.24820917E+03 E0= -.24820917E+03  d E =-.251935E+00  mag=    -0.0000
       N       E                     dE             d eps       ncg     rms          rms(c)
DAV:   1    -0.248209289301E+03   -0.11957E-03   -0.86701E-02 41944   0.133E+00    0.864E-02
DAV:   2    -0.248209538305E+03   -0.24900E-03   -0.47733E-03 45912   0.262E-01    0.470E-02
DAV:   3    -0.248209495979E+03    0.42326E-04   -0.28740E-04 53600   0.658E-02    0.204E-02
DAV:   4    -0.248209489328E+03    0.66509E-05   -0.38198E-05 50456   0.309E-02    0.715E-03
DAV:   5    -0.248209489499E+03   -0.17127E-06   -0.48756E-06 51664   0.977E-03    0.320E-03
DAV:   6    -0.248209490012E+03   -0.51212E-06   -0.12251E-06 50064   0.517E-03    0.164E-03
DAV:   7    -0.248209490214E+03   -0.20280E-06   -0.38149E-07 30536   0.258E-03    0.996E-04
DAV:   8    -0.248209490365E+03   -0.15020E-06   -0.88226E-08 23576   0.156E-03    0.332E-04
DAV:   9    -0.248209490407E+03   -0.42515E-07   -0.36675E-08 21192   0.127E-03
   5 F= -.24820949E+03 E0= -.24820949E+03  d E =-.252256E+00  mag=     0.0000
       N       E                     dE             d eps       ncg     rms          rms(c)
DAV:   1    -0.248244732098E+03   -0.35242E-01   -0.20234E+01 38856   0.150E+01    0.917E-01
DAV:   2    -0.248286089761E+03   -0.41358E-01   -0.71205E-01 49608   0.345E+00    0.566E-01
DAV:   3    -0.248277459648E+03    0.86301E-02   -0.33762E-02 50152   0.905E-01    0.241E-01
DAV:   4    -0.248276000454E+03    0.14592E-02   -0.87631E-03 50240   0.428E-01    0.883E-02
DAV:   5    -0.248275938303E+03    0.62151E-04   -0.17436E-03 49640   0.188E-01    0.509E-02
DAV:   6    -0.248275891754E+03    0.46549E-04   -0.34492E-04 47960   0.836E-02    0.211E-02
DAV:   7    -0.248275878665E+03    0.13090E-04   -0.54892E-05 49584   0.401E-02    0.127E-02
DAV:   8    -0.248275872618E+03    0.60467E-05   -0.19371E-05 55640   0.246E-02    0.513E-03
DAV:   9    -0.248275872380E+03    0.23774E-06   -0.10117E-05 49240   0.117E-02    0.454E-03
DAV:  10    -0.248275872046E+03    0.33436E-06   -0.25279E-06 47664   0.510E-03    0.208E-03
DAV:  11    -0.248275872022E+03    0.23429E-07   -0.65164E-07 36720   0.282E-03
   6 F= -.24827587E+03 E0= -.24827587E+03  d E =-.663816E-01  mag=    -0.0000
       N       E                     dE             d eps       ncg     rms          rms(c)
DAV:   1    -0.248275977048E+03   -0.10500E-03   -0.61162E-02 40456   0.830E-01    0.519E-02
DAV:   2    -0.248276091416E+03   -0.11437E-03   -0.21103E-03 49264   0.191E-01    0.304E-02
DAV:   3    -0.248276065971E+03    0.25445E-04   -0.10765E-04 50272   0.522E-02    0.127E-02
DAV:   4    -0.248276061323E+03    0.46474E-05   -0.26008E-05 50104   0.233E-02    0.489E-03
DAV:   5    -0.248276060638E+03    0.68499E-06   -0.50240E-06 49696   0.109E-02    0.268E-03
DAV:   6    -0.248276060147E+03    0.49175E-06   -0.97142E-07 46720   0.468E-03    0.114E-03
DAV:   7    -0.248276059952E+03    0.19438E-06   -0.12657E-07 25272   0.235E-03    0.655E-04
DAV:   8    -0.248276059757E+03    0.19515E-06   -0.60556E-08 25160   0.194E-03    0.174E-04
DAV:   9    -0.248276059750E+03    0.77052E-08   -0.54645E-08 21280   0.129E-03
   7 F= -.24827606E+03 E0= -.24827606E+03  d E =-.665693E-01  mag=    -0.0000
       N       E                     dE             d eps       ncg     rms          rms(c)
DAV:   1    -0.248273609225E+03    0.24505E-02   -0.36102E+00 35336   0.108E+01    0.466E-01
DAV:   2    -0.248298697119E+03   -0.25088E-01   -0.30709E-01 44128   0.223E+00    0.284E-01
DAV:   3    -0.248297506427E+03    0.11907E-02   -0.92802E-03 54272   0.462E-01    0.158E-01
DAV:   4    -0.248296951172E+03    0.55525E-03   -0.23288E-03 50360   0.199E-01    0.453E-02
DAV:   5    -0.248296940060E+03    0.11112E-04   -0.51311E-04 48632   0.102E-01    0.311E-02
DAV:   6    -0.248296936932E+03    0.31281E-05   -0.15554E-04 51984   0.444E-02    0.152E-02
DAV:   7    -0.248296935533E+03    0.13989E-05   -0.16248E-05 51752   0.198E-02    0.901E-03
DAV:   8    -0.248296935577E+03   -0.44269E-07   -0.86230E-06 52088   0.113E-02    0.286E-03
DAV:   9    -0.248296935636E+03   -0.59035E-07   -0.13668E-06 45392   0.505E-03    0.177E-03
DAV:  10    -0.248296935645E+03   -0.93896E-08   -0.56266E-07 39536   0.274E-03
   8 F= -.24829694E+03 E0= -.24829694E+03  d E =-.208759E-01  mag=    -0.0000
       N       E                     dE             d eps       ncg     rms          rms(c)
DAV:   1    -0.248296837926E+03    0.97710E-04   -0.58504E-02 36584   0.138E+00    0.592E-02
DAV:   2    -0.248297243109E+03   -0.40518E-03   -0.49558E-03 43896   0.284E-01    0.361E-02
DAV:   3    -0.248297223778E+03    0.19331E-04   -0.15077E-04 54224   0.588E-02    0.199E-02
DAV:   4    -0.248297215336E+03    0.84420E-05   -0.36320E-05 50880   0.251E-02    0.563E-03
DAV:   5    -0.248297215266E+03    0.70067E-07   -0.80073E-06 48976   0.128E-02    0.379E-03
DAV:   6    -0.248297215319E+03   -0.53278E-07   -0.23369E-06 49024   0.549E-03    0.193E-03
DAV:   7    -0.248297215315E+03    0.39472E-08   -0.18229E-07 26016   0.243E-03
   9 F= -.24829722E+03 E0= -.24829722E+03  d E =-.211556E-01  mag=     0.0000
       N       E                     dE             d eps       ncg     rms          rms(c)
DAV:   1    -0.248292491296E+03    0.47240E-02   -0.19080E+00 36016   0.762E+00    0.289E-01
DAV:   2    -0.248305593268E+03   -0.13102E-01   -0.15412E-01 41728   0.144E+00    0.174E-01
DAV:   3    -0.248305241469E+03    0.35180E-03   -0.42869E-03 52976   0.301E-01    0.102E-01
DAV:   4    -0.248305029654E+03    0.21182E-03   -0.11854E-03 50488   0.146E-01    0.316E-02
DAV:   5    -0.248305030226E+03   -0.57206E-06   -0.26587E-04 49704   0.683E-02    0.217E-02
DAV:   6    -0.248305030697E+03   -0.47093E-06   -0.82131E-05 51040   0.289E-02    0.103E-02
DAV:   7    -0.248305029836E+03    0.86117E-06   -0.83601E-06 51704   0.140E-02    0.564E-03
DAV:   8    -0.248305030101E+03   -0.26524E-06   -0.33886E-06 49944   0.713E-03    0.277E-03
DAV:   9    -0.248305030075E+03    0.25389E-07   -0.41740E-07 34384   0.312E-03
  10 F= -.24830503E+03 E0= -.24830503E+03  d E =-.781476E-02  mag=     0.0000
       N       E                     dE             d eps       ncg     rms          rms(c)
DAV:   1    -0.248304099483E+03    0.93062E-03   -0.22380E-01 36264   0.261E+00    0.989E-02
DAV:   2    -0.248305643537E+03   -0.15441E-02   -0.18147E-02 41616   0.492E-01    0.597E-02
DAV:   3    -0.248305601977E+03    0.41560E-04   -0.50568E-04 52912   0.104E-01    0.350E-02
DAV:   4    -0.248305577132E+03    0.24845E-04   -0.14310E-04 50848   0.507E-02    0.110E-02
DAV:   5    -0.248305577380E+03   -0.24755E-06   -0.31868E-05 49848   0.237E-02    0.756E-03
DAV:   6    -0.248305577520E+03   -0.13978E-06   -0.99887E-06 49136   0.101E-02    0.356E-03
DAV:   7    -0.248305577453E+03    0.66691E-07   -0.10244E-06 47568   0.491E-03    0.195E-03
DAV:   8    -0.248305577524E+03   -0.70651E-07   -0.39896E-07 33264   0.257E-03
  11 F= -.24830558E+03 E0= -.24830558E+03  d E =-.836221E-02  mag=    -0.0000
       N       E                     dE             d eps       ncg     rms          rms(c)
DAV:   1    -0.248304372936E+03    0.12045E-02   -0.87480E-01 34880   0.438E+00    0.169E-01
DAV:   2    -0.248307997808E+03   -0.36249E-02   -0.45599E-02 41568   0.872E-01    0.984E-02
DAV:   3    -0.248307818440E+03    0.17937E-03   -0.14432E-03 53776   0.176E-01    0.521E-02
DAV:   4    -0.248307744594E+03    0.73846E-04   -0.23846E-04 49232   0.677E-02    0.158E-02
DAV:   5    -0.248307746049E+03   -0.14541E-05   -0.66738E-05 50848   0.340E-02    0.106E-02
DAV:   6    -0.248307745252E+03    0.79636E-06   -0.13580E-05 52704   0.143E-02    0.595E-03
DAV:   7    -0.248307744589E+03    0.66363E-06   -0.18044E-06 47408   0.650E-03    0.306E-03
DAV:   8    -0.248307744288E+03    0.30026E-06   -0.10434E-06 44448   0.379E-03    0.624E-04
DAV:   9    -0.248307744280E+03    0.85765E-08   -0.15951E-07 24704   0.189E-03
  12 F= -.24830774E+03 E0= -.24830774E+03  d E =-.216676E-02  mag=    -0.0000
       N       E                     dE             d eps       ncg     rms          rms(c)
DAV:   1    -0.248307729752E+03    0.14536E-04   -0.84353E-03 36416   0.431E-01    0.166E-02
DAV:   2    -0.248307764642E+03   -0.34890E-04   -0.43974E-04 41760   0.859E-02    0.967E-03
DAV:   3    -0.248307762846E+03    0.17959E-05   -0.13899E-05 53792   0.173E-02    0.514E-03
DAV:   4    -0.248307762021E+03    0.82478E-06   -0.23721E-06 48912   0.671E-03    0.156E-03
DAV:   5    -0.248307761956E+03    0.64625E-07   -0.60755E-07 34040   0.340E-03
  13 F= -.24830776E+03 E0= -.24830776E+03  d E =-.218443E-02  mag=    -0.0000
       N       E                     dE             d eps       ncg     rms          rms(c)
DAV:   1    -0.248307378245E+03    0.38378E-03   -0.23653E-01 34880   0.240E+00    0.821E-02
DAV:   2    -0.248308675122E+03   -0.12969E-02   -0.14933E-02 43072   0.485E-01    0.468E-02
DAV:   3    -0.248308652128E+03    0.22994E-04   -0.35693E-04 54112   0.933E-02    0.270E-02
DAV:   4    -0.248308636996E+03    0.15133E-04   -0.79813E-05 48000   0.358E-02    0.791E-03
DAV:   5    -0.248308638328E+03   -0.13329E-05   -0.20070E-05 48512   0.163E-02    0.616E-03
DAV:   6    -0.248308638532E+03   -0.20387E-06   -0.48415E-06 47936   0.734E-03    0.293E-03
DAV:   7    -0.248308638576E+03   -0.43563E-07   -0.61905E-07 40064   0.408E-03
  14 F= -.24830864E+03 E0= -.24830864E+03  d E =-.876619E-03  mag=     0.0000
       N       E                     dE             d eps       ncg     rms          rms(c)
DAV:   1    -0.248308275985E+03    0.36255E-03   -0.97107E-02 34904   0.154E+00    0.528E-02
DAV:   2    -0.248308809196E+03   -0.53321E-03   -0.61444E-03 43104   0.311E-01    0.300E-02
DAV:   3    -0.248308799867E+03    0.93298E-05   -0.14751E-04 54128   0.599E-02    0.173E-02
DAV:   4    -0.248308793718E+03    0.61489E-05   -0.32238E-05 48064   0.228E-02    0.507E-03
DAV:   5    -0.248308794333E+03   -0.61526E-06   -0.82332E-06 48656   0.104E-02    0.399E-03
DAV:   6    -0.248308794438E+03   -0.10474E-06   -0.19914E-06 47624   0.472E-03    0.190E-03
DAV:   7    -0.248308794475E+03   -0.37669E-07   -0.20604E-07 26784   0.263E-03
  15 F= -.24830879E+03 E0= -.24830879E+03  d E =-.103252E-02  mag=     0.0000
       N       E                     dE             d eps       ncg     rms          rms(c)
DAV:   1    -0.248307867682E+03    0.92676E-03   -0.12804E-01 36656   0.220E+00    0.790E-02
DAV:   2    -0.248309108844E+03   -0.12412E-02   -0.14129E-02 42144   0.413E-01    0.464E-02
DAV:   3    -0.248309097887E+03    0.10958E-04   -0.38640E-04 53496   0.880E-02    0.273E-02
DAV:   4    -0.248309085780E+03    0.12107E-04   -0.86278E-05 50464   0.426E-02    0.975E-03
DAV:   5    -0.248309085586E+03    0.19386E-06   -0.23263E-05 50784   0.214E-02    0.664E-03
DAV:   6    -0.248309085613E+03   -0.27449E-07   -0.69985E-06 51328   0.903E-03    0.307E-03
DAV:   7    -0.248309085557E+03    0.56798E-07   -0.69940E-07 43840   0.435E-03
  16 F= -.24830909E+03 E0= -.24830909E+03  d E =-.291081E-03  mag=    -0.0000
       N       E                     dE             d eps       ncg     rms          rms(c)
DAV:   1    -0.248309073937E+03    0.11676E-04   -0.18877E-03 37832   0.267E-01    0.959E-03
DAV:   2    -0.248309092114E+03   -0.18177E-04   -0.20766E-04 42080   0.498E-02    0.579E-03
DAV:   3    -0.248309091869E+03    0.24522E-06   -0.57006E-06 52560   0.106E-02    0.334E-03
DAV:   4    -0.248309091646E+03    0.22305E-06   -0.12583E-06 48816   0.502E-03    0.118E-03
DAV:   5    -0.248309091618E+03    0.28265E-07   -0.22802E-07 26112   0.261E-03
  17 F= -.24830909E+03 E0= -.24830909E+03  d E =-.297142E-03  mag=    -0.0000
       N       E                     dE             d eps       ncg     rms          rms(c)
DAV:   1    -0.248309008607E+03    0.83039E-04   -0.22215E-02 36912   0.854E-01    0.350E-02
DAV:   2    -0.248309164331E+03   -0.15572E-03   -0.19371E-03 38976   0.154E-01    0.193E-02
DAV:   3    -0.248309160116E+03    0.42155E-05   -0.69678E-05 54080   0.353E-02    0.103E-02
DAV:   4    -0.248309157628E+03    0.24874E-05   -0.92804E-06 52656   0.155E-02    0.311E-03
DAV:   5    -0.248309157506E+03    0.12268E-06   -0.25142E-06 48656   0.597E-03    0.199E-03
DAV:   6    -0.248309157385E+03    0.12098E-06   -0.27341E-07 29888   0.242E-03    0.956E-04
DAV:   7    -0.248309157326E+03    0.58335E-07   -0.95979E-08 22560   0.200E-03
  18 F= -.24830916E+03 E0= -.24830916E+03  d E =-.657086E-04  mag=    -0.0000
       N       E                     dE             d eps       ncg     rms          rms(c)
DAV:   1    -0.248309157302E+03    0.82138E-07   -0.12543E-07 21232   0.226E-03    0.192E-04
DAV:   2    -0.248309157305E+03   -0.22555E-08   -0.53774E-08 20000   0.160E-03
  19 F= -.24830916E+03 E0= -.24830916E+03  d E =-.656870E-04  mag=    -0.0000
       N       E                     dE             d eps       ncg     rms          rms(c)
DAV:   1    -0.248309138337E+03    0.18966E-04   -0.72688E-03 41112   0.472E-01    0.241E-02
DAV:   2    -0.248309181487E+03   -0.43150E-04   -0.61264E-04 45440   0.902E-02    0.123E-02
DAV:   3    -0.248309180751E+03    0.73578E-06   -0.26309E-05 53160   0.221E-02    0.591E-03
DAV:   4    -0.248309180438E+03    0.31359E-06   -0.25155E-06 51088   0.951E-03    0.227E-03
DAV:   5    -0.248309180639E+03   -0.20177E-06   -0.42766E-07 38048   0.319E-03    0.103E-03
DAV:   6    -0.248309180791E+03   -0.15143E-06   -0.11199E-07 21984   0.183E-03    0.393E-04
DAV:   7    -0.248309180838E+03   -0.47432E-07   -0.41473E-08 20080   0.152E-03
  20 F= -.24830918E+03 E0= -.24830918E+03  d E =-.235335E-04  mag=    -0.0000
       N       E                     dE             d eps       ncg     rms          rms(c)
DAV:   1    -0.248309180192E+03    0.59838E-06   -0.15273E-04 41640   0.683E-02    0.351E-03
DAV:   2    -0.248309181116E+03   -0.92398E-06   -0.12892E-05 45776   0.131E-02    0.178E-03
DAV:   3    -0.248309181153E+03   -0.37104E-07   -0.45774E-07 36728   0.320E-03
  21 F= -.24830918E+03 E0= -.24830918E+03  d E =-.238487E-04  mag=    -0.0000
       N       E                     dE             d eps       ncg     rms          rms(c)
DAV:   1    -0.248309173267E+03    0.78496E-05   -0.35512E-03 37184   0.309E-01    0.135E-02
DAV:   2    -0.248309192326E+03   -0.19060E-04   -0.25335E-04 43480   0.602E-02    0.774E-03
DAV:   3    -0.248309191104E+03    0.12224E-05   -0.78597E-06 53888   0.137E-02    0.377E-03
DAV:   4    -0.248309190714E+03    0.39007E-06   -0.13709E-06 51096   0.612E-03    0.138E-03
DAV:   5    -0.248309190608E+03    0.10584E-06   -0.21815E-07 29552   0.229E-03    0.750E-04
DAV:   6    -0.248309190540E+03    0.68476E-07   -0.76225E-08 21792   0.178E-03
  22 F= -.24830919E+03 E0= -.24830919E+03  d E =-.938620E-05  mag=    -0.0000
       N       E                     dE             d eps       ncg     rms          rms(c)
DAV:   1    -0.248309190446E+03    0.16258E-06   -0.58654E-05 39584   0.398E-02    0.176E-03
DAV:   2    -0.248309190739E+03   -0.29302E-06   -0.41929E-06 44032   0.765E-03    0.985E-04
DAV:   3    -0.248309190692E+03    0.46783E-07   -0.10098E-07 28416   0.181E-03
  23 F= -.24830919E+03 E0= -.24830919E+03  d E =-.953833E-05  mag=    -0.0000
       N       E                     dE             d eps       ncg     rms          rms(c)
DAV:   1    -0.248309177349E+03    0.13389E-04   -0.24693E-03 35064   0.287E-01    0.937E-03
DAV:   2    -0.248309197394E+03   -0.20044E-04   -0.22808E-04 43008   0.584E-02    0.494E-03
DAV:   3    -0.248309197370E+03    0.23805E-07   -0.54257E-06 52592   0.112E-02    0.297E-03
DAV:   4    -0.248309197165E+03    0.20546E-06   -0.88077E-07 46440   0.422E-03    0.938E-04
DAV:   5    -0.248309197143E+03    0.22213E-07   -0.18042E-07 25056   0.214E-03
  24 F= -.24830920E+03 E0= -.24830920E+03  d E =-.645072E-05  mag=    -0.0000
       N       E                     dE             d eps       ncg     rms          rms(c)
DAV:   1    -0.248309197045E+03    0.11988E-06   -0.31215E-05 36928   0.322E-02    0.115E-03
DAV:   2    -0.248309197298E+03   -0.25299E-06   -0.29905E-06 42512   0.646E-03    0.658E-04
DAV:   3    -0.248309197288E+03    0.93823E-08   -0.47886E-08 27456   0.132E-03
  25 F= -.24830920E+03 E0= -.24830920E+03  d E =-.659667E-05  mag=    -0.0000
       N       E                     dE             d eps       ncg     rms          rms(c)
DAV:   1    -0.248309196361E+03    0.93685E-06   -0.12119E-04 35896   0.636E-02    0.212E-03
DAV:   2    -0.248309197340E+03   -0.97877E-06   -0.11277E-05 43152   0.129E-02    0.109E-03
DAV:   3    -0.248309197335E+03    0.46293E-08   -0.23417E-07 35824   0.249E-03
  26 F= -.24830920E+03 E0= -.24830920E+03  d E =-.664334E-05  mag=    -0.0000
       N       E                     dE             d eps       ncg     rms          rms(c)
DAV:   1    -0.248309190619E+03    0.67205E-05   -0.14249E-03 41456   0.206E-01    0.115E-02
DAV:   2    -0.248309198445E+03   -0.78253E-05   -0.11765E-04 41584   0.384E-02    0.546E-03
DAV:   3    -0.248309198549E+03   -0.10424E-06   -0.61086E-06 53184   0.972E-03    0.252E-03
DAV:   4    -0.248309198526E+03    0.22525E-07   -0.28389E-07 36208   0.387E-03
  27 F= -.24830920E+03 E0= -.24830920E+03  d E =-.119113E-05  mag=    -0.0000
       N       E                     dE             d eps       ncg     rms          rms(c)
DAV:   1    -0.248309198632E+03   -0.82997E-07   -0.71916E-05 41992   0.457E-02    0.235E-03
DAV:   2    -0.248309199080E+03   -0.44825E-06   -0.59376E-06 43376   0.875E-03    0.115E-03
DAV:   3    -0.248309199028E+03    0.51625E-07   -0.19172E-07 23216   0.210E-03
  28 F= -.24830920E+03 E0= -.24830920E+03  d E =-.169328E-05  mag=    -0.0000
       N       E                     dE             d eps       ncg     rms          rms(c)
DAV:   1    -0.248309199004E+03    0.76481E-07   -0.13483E-05 41904   0.201E-02    0.107E-03
DAV:   2    -0.248309199062E+03   -0.58550E-07   -0.10984E-06 39728   0.376E-03    0.523E-04
DAV:   3    -0.248309199020E+03    0.42110E-07   -0.41480E-08 19152   0.110E-03
  29 F= -.24830920E+03 E0= -.24830920E+03  d E =-.168486E-05  mag=    -0.0000
       N       E                     dE             d eps       ncg     rms          rms(c)
DAV:   1    -0.248309198111E+03    0.95145E-06   -0.34775E-04 38536   0.997E-02    0.457E-03
DAV:   2    -0.248309200289E+03   -0.21785E-05   -0.28248E-05 41824   0.189E-02    0.235E-03
DAV:   3    -0.248309200145E+03    0.14454E-06   -0.89237E-07 43760   0.424E-03    0.119E-03
DAV:   4    -0.248309200038E+03    0.10657E-06   -0.11315E-07 24576   0.235E-03    0.365E-04
DAV:   5    -0.248309200005E+03    0.33242E-07   -0.73038E-08 19584   0.168E-03
  30 F= -.24830920E+03 E0= -.24830920E+03  d E =-.984837E-06  mag=     0.0000
       N       E                     dE             d eps       ncg     rms          rms(c)
DAV:   1    -0.248309199810E+03    0.22846E-06   -0.40729E-05 38840   0.342E-02    0.158E-03
DAV:   2    -0.248309200061E+03   -0.25100E-06   -0.33780E-06 42448   0.659E-03    0.786E-04
DAV:   3    -0.248309200022E+03    0.38726E-07   -0.90200E-08 25840   0.148E-03
  31 F= -.24830920E+03 E0= -.24830920E+03  d E =-.100190E-05  mag=    -0.0000
       N       E                     dE             d eps       ncg     rms          rms(c)
DAV:   1    -0.248309198960E+03    0.11002E-05   -0.27845E-04 36120   0.848E-02    0.317E-03
DAV:   2    -0.248309200706E+03   -0.17453E-05   -0.19737E-05 39520   0.160E-02    0.172E-03
DAV:   3    -0.248309200713E+03   -0.73196E-08   -0.48752E-07 40768   0.330E-03
  32 F= -.24830920E+03 E0= -.24830920E+03  d E =-.691183E-06  mag=     0.0000
       N       E                     dE             d eps       ncg     rms          rms(c)
DAV:   1    -0.248309198705E+03    0.20007E-05   -0.32916E-04 35960   0.922E-02    0.349E-03
DAV:   2    -0.248309200767E+03   -0.20615E-05   -0.23103E-05 39648   0.176E-02    0.180E-03
DAV:   3    -0.248309200794E+03   -0.27532E-07   -0.59179E-07 41632   0.359E-03
  33 F= -.24830920E+03 E0= -.24830920E+03  d E =-.772252E-06  mag=    -0.0000
       N       E                     dE             d eps       ncg     rms          rms(c)
DAV:   1    -0.248309198626E+03    0.21405E-05   -0.33389E-04 35616   0.101E-01    0.420E-03
DAV:   2    -0.248309201177E+03   -0.25512E-05   -0.29763E-05 39120   0.193E-02    0.209E-03
DAV:   3    -0.248309201217E+03   -0.39230E-07   -0.79293E-07 42656   0.390E-03
  34 F= -.24830920E+03 E0= -.24830920E+03  d E =-.422378E-06  mag=     0.0000
       N       E                     dE             d eps       ncg     rms          rms(c)
DAV:   1    -0.248309200963E+03    0.21422E-06   -0.31203E-05 36464   0.311E-02    0.140E-03
DAV:   2    -0.248309201228E+03   -0.26493E-06   -0.27943E-06 39440   0.588E-03    0.720E-04
DAV:   3    -0.248309201259E+03   -0.30959E-07   -0.63564E-08 29584   0.123E-03
  35 F= -.24830920E+03 E0= -.24830920E+03  d E =-.464823E-06  mag=    -0.0000
       N       E                     dE             d eps       ncg     rms          rms(c)
DAV:   1    -0.248309201161E+03    0.66984E-07   -0.15658E-04 41088   0.746E-02    0.481E-03
DAV:   2    -0.248309202040E+03   -0.87944E-06   -0.16143E-05 40000   0.143E-02    0.231E-03
DAV:   3    -0.248309201844E+03    0.19686E-06   -0.10077E-06 47760   0.379E-03    0.974E-04
DAV:   4    -0.248309201786E+03    0.57911E-07   -0.43743E-08 19984   0.166E-03
  36 F= -.24830920E+03 E0= -.24830920E+03  d E =-.526725E-06  mag=    -0.0000
