       N       E                     dE             d eps       ncg     rms          rms(c)
DAV:   1     0.981191545137E+03    0.98119E+03   -0.62412E+04 26144   0.132E+03
DAV:   2    -0.143987422930E+03   -0.11252E+04   -0.10507E+04 35760   0.366E+02
DAV:   3    -0.268357597995E+03   -0.12437E+03   -0.12310E+03 40232   0.133E+02
DAV:   4    -0.271903657406E+03   -0.35461E+01   -0.35332E+01 41392   0.267E+01
DAV:   5    -0.271982809251E+03   -0.79152E-01   -0.79070E-01 39144   0.358E+00    0.450E+01
DAV:   6    -0.227637519829E+03    0.44345E+02   -0.20232E+02 42376   0.556E+01    0.123E+01
DAV:   7    -0.229957777748E+03   -0.23203E+01   -0.23084E+01 40112   0.198E+01    0.731E+00
DAV:   8    -0.229823820139E+03    0.13396E+00   -0.13694E+00 39016   0.516E+00    0.417E+00
DAV:   9    -0.229789399061E+03    0.34421E-01   -0.87815E-01 39008   0.417E+00    0.110E+00
DAV:  10    -0.229778874962E+03    0.10524E-01   -0.16609E-01 41264   0.201E+00    0.555E-01
DAV:  11    -0.229780487638E+03   -0.16127E-02   -0.36685E-02 40600   0.864E-01    0.283E-01
DAV:  12    -0.229782653986E+03   -0.21663E-02   -0.56271E-03 40136   0.531E-01    0.149E-01
DAV:  13    -0.229783653273E+03   -0.99929E-03   -0.31223E-03 40968   0.343E-01    0.707E-02
DAV:  14    -0.229783941184E+03   -0.28791E-03   -0.97555E-04 39984   0.178E-01    0.437E-02
DAV:  15    -0.229784024480E+03   -0.83296E-04   -0.24483E-04 40960   0.886E-02    0.206E-02
DAV:  16    -0.229784077956E+03   -0.53476E-04   -0.13216E-04 36544   0.677E-02    0.119E-02
DAV:  17    -0.229784088980E+03   -0.11023E-04   -0.23891E-05 40272   0.273E-02    0.775E-03
DAV:  18    -0.229784095563E+03   -0.65835E-05   -0.18007E-05 39112   0.234E-02    0.447E-03
DAV:  19    -0.229784097784E+03   -0.22209E-05   -0.50183E-06 29048   0.129E-02    0.311E-03
DAV:  20    -0.229784098640E+03   -0.85580E-06   -0.23306E-06 22728   0.905E-03
   1 F= -.22978410E+03 E0= -.22978410E+03  d E =-.229784E+03  mag=    -0.0002
       N       E                     dE             d eps       ncg     rms          rms(c)
DAV:   1    -0.218379904760E+03    0.11404E+02   -0.14515E+03 27072   0.155E+02    0.128E+01
DAV:   2    -0.231047826052E+03   -0.12668E+02   -0.15734E+02 39640   0.547E+01    0.139E+01
DAV:   3    -0.230192517481E+03    0.85531E+00   -0.44044E+01 41760   0.147E+01    0.870E+00
DAV:   4    -0.228978115364E+03    0.12144E+01   -0.66794E+00 40616   0.753E+00    0.480E+00
DAV:   5    -0.228784493888E+03    0.19362E+00   -0.45871E+00 39808   0.575E+00    0.277E+00
DAV:   6    -0.228623619182E+03    0.16087E+00   -0.54292E-01 40232   0.317E+00    0.112E+00
DAV:   7    -0.228608751669E+03    0.14868E-01   -0.12194E-01 39512   0.149E+00    0.682E-01
DAV:   8    -0.228606954091E+03    0.17976E-02   -0.38427E-02 40656   0.978E-01    0.409E-01
DAV:   9    -0.228605083744E+03    0.18703E-02   -0.12129E-02 38600   0.417E-01    0.236E-01
DAV:  10    -0.228604767640E+03    0.31610E-03   -0.75977E-03 40768   0.278E-01    0.980E-02
DAV:  11    -0.228604869726E+03   -0.10209E-03   -0.71903E-04 41920   0.124E-01    0.722E-02
DAV:  12    -0.228604889182E+03   -0.19456E-04   -0.47152E-04 42560   0.844E-02    0.351E-02
DAV:  13    -0.228604907435E+03   -0.18253E-04   -0.19989E-04 37736   0.434E-02    0.281E-02
DAV:  14    -0.228604922552E+03   -0.15117E-04   -0.15314E-04 40384   0.313E-02    0.248E-02
DAV:  15    -0.228604920996E+03    0.15556E-05   -0.13051E-05 31584   0.112E-02    0.252E-02
DAV:  16    -0.228604908810E+03    0.12186E-04   -0.65930E-05 31360   0.105E-02    0.217E-02
DAV:  17    -0.228604894818E+03    0.13992E-04   -0.20264E-04 36248   0.182E-02    0.137E-02
DAV:  18    -0.228604893212E+03    0.16058E-05   -0.47835E-05 35304   0.124E-02    0.770E-03
DAV:  19    -0.228604893270E+03   -0.57608E-07   -0.31811E-06 22936   0.774E-03
   2 F= -.22860489E+03 E0= -.22860489E+03  d E =0.117921E+01  mag=    -0.0000
       N       E                     dE             d eps       ncg     rms          rms(c)
DAV:   1    -0.230130764859E+03   -0.15259E+01   -0.65635E+02 27760   0.990E+01    0.977E+00
DAV:   2    -0.232287938785E+03   -0.21572E+01   -0.49856E+01 35664   0.286E+01    0.445E+00
DAV:   3    -0.231884753058E+03    0.40319E+00   -0.22594E+00 39208   0.685E+00    0.183E+00
DAV:   4    -0.231801023348E+03    0.83730E-01   -0.39733E-01 41864   0.297E+00    0.964E-01
DAV:   5    -0.231789437072E+03    0.11586E-01   -0.13171E-01 39168   0.152E+00    0.451E-01
DAV:   6    -0.231788867908E+03    0.56916E-03   -0.16255E-02 35664   0.531E-01    0.247E-01
DAV:   7    -0.231789149405E+03   -0.28150E-03   -0.57694E-03 40360   0.343E-01    0.102E-01
DAV:   8    -0.231789128848E+03    0.20557E-04   -0.89818E-04 37592   0.147E-01    0.501E-02
DAV:   9    -0.231789182341E+03   -0.53492E-04   -0.68342E-04 40976   0.108E-01    0.241E-02
DAV:  10    -0.231789185705E+03   -0.33636E-05   -0.10191E-04 37536   0.474E-02    0.124E-02
DAV:  11    -0.231789189691E+03   -0.39869E-05   -0.42154E-05 42240   0.229E-02    0.741E-03
DAV:  12    -0.231789190491E+03   -0.79977E-06   -0.42394E-06 30176   0.129E-02
   3 F= -.23178919E+03 E0= -.23178919E+03  d E =-.200509E+01  mag=     0.0000
       N       E                     dE             d eps       ncg     rms          rms(c)
DAV:   1    -0.231797566517E+03   -0.83768E-02   -0.66902E-01 28720   0.318E+00    0.275E-01
DAV:   2    -0.231798875812E+03   -0.13093E-02   -0.35820E-02 36104   0.823E-01    0.137E-01
DAV:   3    -0.231798592334E+03    0.28348E-03   -0.20891E-03 40328   0.199E-01    0.564E-02
DAV:   4    -0.231798528832E+03    0.63502E-04   -0.27705E-04 39784   0.872E-02    0.262E-02
DAV:   5    -0.231798529247E+03   -0.41500E-06   -0.10674E-04 39312   0.421E-02    0.130E-02
DAV:   6    -0.231798532624E+03   -0.33767E-05   -0.14501E-05 40688   0.212E-02    0.630E-03
DAV:   7    -0.231798535568E+03   -0.29444E-05   -0.51328E-06 33032   0.119E-02    0.337E-03
DAV:   8    -0.231798536367E+03   -0.79854E-06   -0.79915E-07 16560   0.624E-03
   4 F= -.23179854E+03 E0= -.23179854E+03  d E =-.201444E+01  mag=    -0.0000
       N       E                     dE             d eps       ncg     rms          rms(c)
DAV:   1    -0.230457561324E+03    0.13410E+01   -0.22975E+02 29384   0.677E+01    0.409E+00
DAV:   2    -0.232090599894E+03   -0.16330E+01   -0.21931E+01 29528   0.182E+01    0.230E+00
DAV:   3    -0.232025409178E+03    0.65191E-01   -0.96144E-01 42696   0.430E+00    0.124E+00
DAV:   4    -0.231991343175E+03    0.34066E-01   -0.15926E-01 39552   0.169E+00    0.458E-01
DAV:   5    -0.231988471645E+03    0.28715E-02   -0.35295E-02 40384   0.917E-01    0.244E-01
DAV:   6    -0.231988189831E+03    0.28181E-03   -0.81841E-03 41880   0.403E-01    0.131E-01
DAV:   7    -0.231988240260E+03   -0.50429E-04   -0.16750E-03 35808   0.185E-01    0.794E-02
DAV:   8    -0.231988271225E+03   -0.30965E-04   -0.75760E-04 40656   0.128E-01    0.310E-02
DAV:   9    -0.231988285063E+03   -0.13839E-04   -0.16171E-04 38312   0.582E-02    0.193E-02
DAV:  10    -0.231988290713E+03   -0.56499E-05   -0.49601E-05 39208   0.301E-02    0.929E-03
DAV:  11    -0.231988293260E+03   -0.25463E-05   -0.11323E-05 38192   0.157E-02    0.514E-03
DAV:  12    -0.231988294289E+03   -0.10298E-05   -0.25519E-06 26024   0.101E-02    0.231E-03
DAV:  13    -0.231988294484E+03   -0.19440E-06   -0.11251E-06 17168   0.612E-03
   5 F= -.23198829E+03 E0= -.23198829E+03  d E =-.189758E+00  mag=    -0.0000
       N       E                     dE             d eps       ncg     rms          rms(c)
DAV:   1    -0.231991171002E+03   -0.28767E-02   -0.44662E+01 28464   0.295E+01    0.185E+00
DAV:   2    -0.232336488443E+03   -0.34532E+00   -0.47047E+00 30408   0.765E+00    0.114E+00
DAV:   3    -0.232323336708E+03    0.13152E-01   -0.22348E-01 40864   0.200E+00    0.667E-01
DAV:   4    -0.232313642982E+03    0.96937E-02   -0.65955E-02 40064   0.103E+00    0.256E-01
DAV:   5    -0.232312632063E+03    0.10109E-02   -0.94173E-03 36656   0.455E-01    0.140E-01
DAV:   6    -0.232312752594E+03   -0.12053E-03   -0.47553E-03 37360   0.244E-01    0.777E-02
DAV:   7    -0.232312750383E+03    0.22118E-05   -0.64639E-04 39656   0.121E-01    0.351E-02
DAV:   8    -0.232312773408E+03   -0.23025E-04   -0.18994E-04 41328   0.629E-02    0.199E-02
DAV:   9    -0.232312778872E+03   -0.54638E-05   -0.35012E-05 38328   0.357E-02    0.932E-03
DAV:  10    -0.232312783036E+03   -0.41648E-05   -0.15638E-05 39440   0.176E-02    0.434E-03
DAV:  11    -0.232312783830E+03   -0.79324E-06   -0.20424E-06 24144   0.837E-03
   6 F= -.23231278E+03 E0= -.23231278E+03  d E =-.514247E+00  mag=     0.0000
       N       E                     dE             d eps       ncg     rms          rms(c)
DAV:   1    -0.232451565758E+03   -0.13878E+00   -0.22432E+01 27536   0.185E+01    0.190E+00
DAV:   2    -0.232458434640E+03   -0.68689E-02   -0.12379E+00 35192   0.484E+00    0.941E-01
DAV:   3    -0.232441562256E+03    0.16872E-01   -0.12391E-01 36376   0.135E+00    0.342E-01
DAV:   4    -0.232439932050E+03    0.16302E-02   -0.15737E-02 40560   0.677E-01    0.166E-01
DAV:   5    -0.232439440297E+03    0.49175E-03   -0.25249E-03 40296   0.235E-01    0.774E-02
DAV:   6    -0.232439459670E+03   -0.19372E-04   -0.72764E-04 41336   0.132E-01    0.318E-02
DAV:   7    -0.232439488883E+03   -0.29213E-04   -0.26043E-04 39248   0.686E-02    0.225E-02
DAV:   8    -0.232439490184E+03   -0.13014E-05   -0.32352E-05 39064   0.273E-02    0.122E-02
DAV:   9    -0.232439497414E+03   -0.72299E-05   -0.37481E-05 38408   0.270E-02    0.811E-03
DAV:  10    -0.232439497001E+03    0.41272E-06   -0.51392E-06 29288   0.127E-02
   7 F= -.23243950E+03 E0= -.23243950E+03  d E =-.126713E+00  mag=    -0.0000
       N       E                     dE             d eps       ncg     rms          rms(c)
DAV:   1    -0.232441308134E+03   -0.18107E-02   -0.23090E-01 27808   0.188E+00    0.190E-01
DAV:   2    -0.232441394014E+03   -0.85880E-04   -0.12672E-02 34560   0.495E-01    0.966E-02
DAV:   3    -0.232441212325E+03    0.18169E-03   -0.14199E-03 35896   0.142E-01    0.355E-02
DAV:   4    -0.232441190514E+03    0.21811E-04   -0.16327E-04 40832   0.699E-02    0.170E-02
DAV:   5    -0.232441182217E+03    0.82973E-05   -0.29298E-05 39800   0.235E-02    0.832E-03
DAV:   6    -0.232441179760E+03    0.24571E-05   -0.70080E-06 36200   0.130E-02    0.329E-03
DAV:   7    -0.232441179348E+03    0.41144E-06   -0.22846E-06 19920   0.801E-03
   8 F= -.23244118E+03 E0= -.23244118E+03  d E =-.128396E+00  mag=     0.0000
       N       E                     dE             d eps       ncg     rms          rms(c)
DAV:   1    -0.232449923708E+03   -0.87439E-02   -0.13220E+01 27312   0.130E+01    0.569E-01
DAV:   2    -0.232486300915E+03   -0.36377E-01   -0.48980E-01 38880   0.324E+00    0.445E-01
DAV:   3    -0.232482626210E+03    0.36747E-02   -0.18759E-02 40928   0.704E-01    0.261E-01
DAV:   4    -0.232480964684E+03    0.16615E-02   -0.12489E-02 40136   0.458E-01    0.101E-01
DAV:   5    -0.232480949038E+03    0.15646E-04   -0.21078E-03 39888   0.202E-01    0.665E-02
DAV:   6    -0.232480969972E+03   -0.20934E-04   -0.73828E-04 37896   0.104E-01    0.339E-02
DAV:   7    -0.232480984877E+03   -0.14905E-04   -0.11209E-04 37792   0.536E-02    0.173E-02
DAV:   8    -0.232480995526E+03   -0.10648E-04   -0.36645E-05 35056   0.325E-02    0.911E-03
DAV:   9    -0.232480997900E+03   -0.23744E-05   -0.12169E-05 39472   0.171E-02    0.384E-03
DAV:  10    -0.232480998375E+03   -0.47513E-06   -0.19185E-06 20968   0.715E-03
   9 F= -.23248100E+03 E0= -.23248100E+03  d E =-.398190E-01  mag=     0.0000
       N       E                     dE             d eps       ncg     rms          rms(c)
DAV:   1    -0.232482054871E+03   -0.10570E-02   -0.46193E-01 27400   0.241E+00    0.107E-01
DAV:   2    -0.232483330901E+03   -0.12760E-02   -0.17077E-02 38880   0.604E-01    0.855E-02
DAV:   3    -0.232483193399E+03    0.13750E-03   -0.63364E-04 40256   0.132E-01    0.501E-02
DAV:   4    -0.232483131070E+03    0.62329E-04   -0.47106E-04 39824   0.864E-02    0.191E-02
DAV:   5    -0.232483130649E+03    0.42103E-06   -0.78207E-05 39168   0.383E-02    0.130E-02
DAV:   6    -0.232483130848E+03   -0.19966E-06   -0.27681E-05 37016   0.200E-02    0.639E-03
DAV:   7    -0.232483131711E+03   -0.86260E-06   -0.46224E-06 29456   0.107E-02
  10 F= -.23248313E+03 E0= -.23248313E+03  d E =-.419524E-01  mag=     0.0000
       N       E                     dE             d eps       ncg     rms          rms(c)
DAV:   1    -0.232476601912E+03    0.65289E-02   -0.85419E+00 28288   0.126E+01    0.910E-01
DAV:   2    -0.232528569418E+03   -0.51968E-01   -0.78333E-01 31064   0.325E+00    0.457E-01
DAV:   3    -0.232525620201E+03    0.29492E-02   -0.32944E-02 41160   0.719E-01    0.208E-01
DAV:   4    -0.232524658965E+03    0.96124E-03   -0.34064E-03 39424   0.247E-01    0.784E-02
DAV:   5    -0.232524575699E+03    0.83266E-04   -0.68908E-04 39112   0.113E-01    0.326E-02
DAV:   6    -0.232524570766E+03    0.49336E-05   -0.12295E-04 41104   0.517E-02    0.197E-02
DAV:   7    -0.232524570206E+03    0.55916E-06   -0.32109E-05 41384   0.261E-02    0.109E-02
DAV:   8    -0.232524569412E+03    0.79469E-06   -0.64461E-06 35000   0.125E-02
  11 F= -.23252457E+03 E0= -.23252457E+03  d E =-.414377E-01  mag=     0.0000
       N       E                     dE             d eps       ncg     rms          rms(c)
DAV:   1    -0.232523334886E+03    0.12353E-02   -0.52104E-01 28360   0.312E+00    0.225E-01
DAV:   2    -0.232526512758E+03   -0.31779E-02   -0.48130E-02 31136   0.799E-01    0.113E-01
DAV:   3    -0.232526335768E+03    0.17699E-03   -0.20569E-03 41096   0.181E-01    0.519E-02
DAV:   4    -0.232526274242E+03    0.61526E-04   -0.21468E-04 39360   0.608E-02    0.197E-02
DAV:   5    -0.232526267648E+03    0.65945E-05   -0.42765E-05 38968   0.287E-02    0.812E-03
DAV:   6    -0.232526266970E+03    0.67748E-06   -0.78712E-06 37568   0.134E-02
  12 F= -.23252627E+03 E0= -.23252627E+03  d E =-.431353E-01  mag=     0.0000
       N       E                     dE             d eps       ncg     rms          rms(c)
DAV:   1    -0.232497374682E+03    0.28893E-01   -0.54291E+00 28288   0.113E+01    0.611E-01
DAV:   2    -0.232551934239E+03   -0.54560E-01   -0.68073E-01 28848   0.287E+00    0.257E-01
DAV:   3    -0.232553405048E+03   -0.14708E-02   -0.27465E-02 41848   0.653E-01    0.155E-01
DAV:   4    -0.232553187270E+03    0.21778E-03   -0.17531E-03 41928   0.210E-01    0.758E-02
DAV:   5    -0.232553191965E+03   -0.46947E-05   -0.51293E-04 39936   0.993E-02    0.310E-02
DAV:   6    -0.232553197315E+03   -0.53503E-05   -0.83713E-05 41840   0.456E-02    0.162E-02
DAV:   7    -0.232553201630E+03   -0.43150E-05   -0.29072E-05 38968   0.230E-02    0.948E-03
DAV:   8    -0.232553202156E+03   -0.52646E-06   -0.57277E-06 33448   0.121E-02
  13 F= -.23255320E+03 E0= -.23255320E+03  d E =-.269352E-01  mag=    -0.0000
       N       E                     dE             d eps       ncg     rms          rms(c)
DAV:   1    -0.232542460116E+03    0.10742E-01   -0.13713E+00 28304   0.566E+00    0.308E-01
DAV:   2    -0.232556286681E+03   -0.13827E-01   -0.17294E-01 29056   0.145E+00    0.129E-01
DAV:   3    -0.232556668399E+03   -0.38172E-03   -0.69770E-03 41816   0.330E-01    0.779E-02
DAV:   4    -0.232556614083E+03    0.54316E-04   -0.44492E-04 42024   0.106E-01    0.378E-02
DAV:   5    -0.232556617252E+03   -0.31684E-05   -0.13098E-04 39816   0.497E-02    0.158E-02
DAV:   6    -0.232556618694E+03   -0.14420E-05   -0.21403E-05 41848   0.232E-02    0.823E-03
DAV:   7    -0.232556620037E+03   -0.13437E-05   -0.74848E-06 32272   0.119E-02    0.477E-03
DAV:   8    -0.232556620252E+03   -0.21451E-06   -0.11085E-06 19496   0.666E-03
  14 F= -.23255662E+03 E0= -.23255662E+03  d E =-.303533E-01  mag=     0.0000
       N       E                     dE             d eps       ncg     rms          rms(c)
DAV:   1    -0.232551438252E+03    0.51818E-02   -0.54270E+00 28288   0.977E+00    0.488E-01
DAV:   2    -0.232577782193E+03   -0.26344E-01   -0.34328E-01 33008   0.235E+00    0.249E-01
DAV:   3    -0.232577472519E+03    0.30967E-03   -0.13321E-02 39856   0.519E-01    0.142E-01
DAV:   4    -0.232577125831E+03    0.34669E-03   -0.26308E-03 41136   0.245E-01    0.634E-02
DAV:   5    -0.232577115395E+03    0.10437E-04   -0.39709E-04 39928   0.921E-02    0.320E-02
DAV:   6    -0.232577131701E+03   -0.16306E-04   -0.10789E-04 39256   0.433E-02    0.156E-02
DAV:   7    -0.232577134279E+03   -0.25779E-05   -0.12122E-05 39824   0.204E-02    0.794E-03
DAV:   8    -0.232577136161E+03   -0.18822E-05   -0.52688E-06 33576   0.120E-02    0.317E-03
DAV:   9    -0.232577136263E+03   -0.10194E-06   -0.70388E-07 17312   0.579E-03
  15 F= -.23257714E+03 E0= -.23257714E+03  d E =-.205160E-01  mag=     0.0000
       N       E                     dE             d eps       ncg     rms          rms(c)
DAV:   1    -0.232562210312E+03    0.14926E-01   -0.43893E+00 28288   0.878E+00    0.438E-01
DAV:   2    -0.232583666484E+03   -0.21456E-01   -0.27902E-01 33104   0.212E+00    0.228E-01
DAV:   3    -0.232583334225E+03    0.33226E-03   -0.10542E-02 40152   0.468E-01    0.129E-01
DAV:   4    -0.232583043468E+03    0.29076E-03   -0.21661E-03 41296   0.222E-01    0.577E-02
DAV:   5    -0.232583033476E+03    0.99915E-05   -0.32788E-04 40016   0.836E-02    0.289E-02
DAV:   6    -0.232583046769E+03   -0.13293E-04   -0.87401E-05 39328   0.391E-02    0.141E-02
DAV:   7    -0.232583048954E+03   -0.21854E-05   -0.97893E-06 38792   0.185E-02    0.722E-03
DAV:   8    -0.232583050493E+03   -0.15385E-05   -0.41229E-06 30752   0.108E-02    0.291E-03
DAV:   9    -0.232583050585E+03   -0.92572E-07   -0.62683E-07 17160   0.572E-03
  16 F= -.23258305E+03 E0= -.23258305E+03  d E =-.264303E-01  mag=     0.0000
       N       E                     dE             d eps       ncg     rms          rms(c)
DAV:   1    -0.232559700590E+03    0.23350E-01   -0.50229E+00 28288   0.105E+01    0.535E-01
DAV:   2    -0.232601580914E+03   -0.41880E-01   -0.51782E-01 28768   0.261E+00    0.226E-01
DAV:   3    -0.232602306735E+03   -0.72582E-03   -0.19227E-02 41520   0.570E-01    0.141E-01
DAV:   4    -0.232601976929E+03    0.32981E-03   -0.18067E-03 41256   0.203E-01    0.651E-02
DAV:   5    -0.232601958703E+03    0.18226E-04   -0.47776E-04 39656   0.939E-02    0.259E-02
DAV:   6    -0.232601958549E+03    0.15348E-06   -0.69630E-05 35792   0.367E-02    0.138E-02
DAV:   7    -0.232601960135E+03   -0.15860E-05   -0.15812E-05 39216   0.185E-02    0.677E-03
DAV:   8    -0.232601960225E+03   -0.89817E-07   -0.21837E-06 23696   0.834E-03
  17 F= -.23260196E+03 E0= -.23260196E+03  d E =-.189096E-01  mag=     0.0000
       N       E                     dE             d eps       ncg     rms          rms(c)
DAV:   1    -0.232506351423E+03    0.95609E-01   -0.12743E+01 28288   0.167E+01    0.851E-01
DAV:   2    -0.232611985572E+03   -0.10563E+00   -0.13059E+00 28512   0.416E+00    0.359E-01
DAV:   3    -0.232613945851E+03   -0.19603E-02   -0.50043E-02 41424   0.912E-01    0.225E-01
DAV:   4    -0.232613106816E+03    0.83904E-03   -0.45926E-03 41288   0.324E-01    0.103E-01
DAV:   5    -0.232613058737E+03    0.48079E-04   -0.12048E-03 39736   0.149E-01    0.413E-02
DAV:   6    -0.232613057807E+03    0.92966E-06   -0.17661E-04 36312   0.585E-02    0.221E-02
DAV:   7    -0.232613061485E+03   -0.36772E-05   -0.39908E-05 39128   0.291E-02    0.108E-02
DAV:   8    -0.232613061743E+03   -0.25809E-06   -0.69478E-06 35536   0.133E-02
  18 F= -.23261306E+03 E0= -.23261306E+03  d E =-.300112E-01  mag=    -0.0000
       N       E                     dE             d eps       ncg     rms          rms(c)
DAV:   1    -0.232570014749E+03    0.43047E-01   -0.70502E+00 28288   0.124E+01    0.577E-01
DAV:   2    -0.232630921043E+03   -0.60906E-01   -0.71950E-01 27848   0.304E+00    0.227E-01
DAV:   3    -0.232632586867E+03   -0.16658E-02   -0.26979E-02 42016   0.666E-01    0.152E-01
DAV:   4    -0.232632317904E+03    0.26896E-03   -0.18316E-03 41400   0.213E-01    0.768E-02
DAV:   5    -0.232632318070E+03   -0.16579E-06   -0.57459E-04 39056   0.103E-01    0.308E-02
DAV:   6    -0.232632323453E+03   -0.53824E-05   -0.90200E-05 41200   0.460E-02    0.174E-02
DAV:   7    -0.232632326811E+03   -0.33587E-05   -0.24994E-05 37080   0.206E-02    0.968E-03
DAV:   8    -0.232632327104E+03   -0.29319E-06   -0.57736E-06 35664   0.126E-02
  19 F= -.23263233E+03 E0= -.23263233E+03  d E =-.192654E-01  mag=     0.0000
       N       E                     dE             d eps       ncg     rms          rms(c)
DAV:   1    -0.232086101915E+03    0.54622E+00   -0.62929E+01 28288   0.371E+01    0.168E+00
DAV:   2    -0.232634360385E+03   -0.54826E+00   -0.64088E+00 27608   0.918E+00    0.667E-01
DAV:   3    -0.232649836274E+03   -0.15476E-01   -0.25043E-01 41584   0.201E+00    0.450E-01
DAV:   4    -0.232647495291E+03    0.23410E-02   -0.15839E-02 41264   0.619E-01    0.223E-01
DAV:   5    -0.232647437139E+03    0.58152E-04   -0.50841E-03 40488   0.312E-01    0.931E-02
DAV:   6    -0.232647478796E+03   -0.41658E-04   -0.74787E-04 42760   0.139E-01    0.532E-02
DAV:   7    -0.232647503038E+03   -0.24242E-04   -0.25093E-04 36416   0.640E-02    0.292E-02
DAV:   8    -0.232647504339E+03   -0.13013E-05   -0.49990E-05 40680   0.370E-02    0.749E-03
DAV:   9    -0.232647506554E+03   -0.22147E-05   -0.15560E-05 37976   0.165E-02    0.386E-03
DAV:  10    -0.232647506534E+03    0.19993E-07   -0.91188E-07 18448   0.650E-03
  20 F= -.23264751E+03 E0= -.23264751E+03  d E =-.344448E-01  mag=    -0.0000
       N       E                     dE             d eps       ncg     rms          rms(c)
DAV:   1    -0.232609084853E+03    0.38422E-01   -0.46492E+00 28096   0.100E+01    0.468E-01
DAV:   2    -0.232649115974E+03   -0.40031E-01   -0.47389E-01 28256   0.247E+00    0.194E-01
DAV:   3    -0.232649960322E+03   -0.84435E-03   -0.16812E-02 42024   0.544E-01    0.125E-01
DAV:   4    -0.232649765655E+03    0.19467E-03   -0.13477E-03 42104   0.181E-01    0.639E-02
DAV:   5    -0.232649757435E+03    0.82194E-05   -0.38242E-04 38720   0.832E-02    0.255E-02
DAV:   6    -0.232649762967E+03   -0.55314E-05   -0.59611E-05 40576   0.364E-02    0.139E-02
DAV:   7    -0.232649764790E+03   -0.18235E-05   -0.14383E-05 36248   0.162E-02    0.778E-03
DAV:   8    -0.232649764881E+03   -0.91297E-07   -0.34859E-06 28152   0.101E-02
  21 F= -.23264976E+03 E0= -.23264976E+03  d E =-.367031E-01  mag=     0.0000
       N       E                     dE             d eps       ncg     rms          rms(c)
DAV:   1    -0.232596127316E+03    0.53637E-01   -0.85859E+00 28192   0.136E+01    0.632E-01
DAV:   2    -0.232670756387E+03   -0.74629E-01   -0.87269E-01 27848   0.332E+00    0.270E-01
DAV:   3    -0.232672420671E+03   -0.16643E-02   -0.33090E-02 41480   0.743E-01    0.173E-01
DAV:   4    -0.232672039733E+03    0.38094E-03   -0.25345E-03 41368   0.255E-01    0.868E-02
DAV:   5    -0.232672025966E+03    0.13767E-04   -0.71977E-04 40576   0.121E-01    0.354E-02
DAV:   6    -0.232672038274E+03   -0.12308E-04   -0.98636E-05 39488   0.495E-02    0.192E-02
DAV:   7    -0.232672042711E+03   -0.44370E-05   -0.29096E-05 38664   0.243E-02    0.100E-02
DAV:   8    -0.232672043205E+03   -0.49435E-06   -0.66349E-06 36912   0.130E-02
  22 F= -.23267204E+03 E0= -.23267204E+03  d E =-.222783E-01  mag=     0.0000
       N       E                     dE             d eps       ncg     rms          rms(c)
DAV:   1    -0.232391033246E+03    0.28101E+00   -0.33589E+01 28256   0.269E+01    0.123E+00
DAV:   2    -0.232682635232E+03   -0.29160E+00   -0.34007E+00 27488   0.661E+00    0.533E-01
DAV:   3    -0.232689292836E+03   -0.66576E-02   -0.13427E-01 41504   0.149E+00    0.342E-01
DAV:   4    -0.232687779243E+03    0.15136E-02   -0.97721E-03 41312   0.497E-01    0.172E-01
DAV:   5    -0.232687683609E+03    0.95634E-04   -0.28474E-03 40736   0.242E-01    0.715E-02
DAV:   6    -0.232687729950E+03   -0.46341E-04   -0.40415E-04 41072   0.102E-01    0.388E-02
DAV:   7    -0.232687743903E+03   -0.13952E-04   -0.12866E-04 37992   0.504E-02    0.211E-02
DAV:   8    -0.232687745206E+03   -0.13030E-05   -0.28122E-05 40056   0.262E-02    0.618E-03
DAV:   9    -0.232687746411E+03   -0.12054E-05   -0.85008E-06 37592   0.139E-02    0.294E-03
DAV:  10    -0.232687746422E+03   -0.10961E-07   -0.46242E-07 17848   0.467E-03
  23 F= -.23268775E+03 E0= -.23268775E+03  d E =-.379815E-01  mag=    -0.0000
       N       E                     dE             d eps       ncg     rms          rms(c)
DAV:   1    -0.232630599355E+03    0.57147E-01   -0.66276E+00 28144   0.124E+01    0.596E-01
DAV:   2    -0.232700604987E+03   -0.70006E-01   -0.81725E-01 27440   0.315E+00    0.277E-01
DAV:   3    -0.232701844057E+03   -0.12391E-02   -0.30567E-02 40944   0.696E-01    0.165E-01
DAV:   4    -0.232701470225E+03    0.37383E-03   -0.22188E-03 41504   0.243E-01    0.805E-02
DAV:   5    -0.232701456170E+03    0.14055E-04   -0.71261E-04 40608   0.119E-01    0.341E-02
DAV:   6    -0.232701463559E+03   -0.73895E-05   -0.95307E-05 40992   0.487E-02    0.190E-02
DAV:   7    -0.232701467046E+03   -0.34872E-05   -0.32914E-05 37464   0.250E-02    0.971E-03
DAV:   8    -0.232701467404E+03   -0.35796E-06   -0.59923E-06 35344   0.128E-02
  24 F= -.23270147E+03 E0= -.23270147E+03  d E =-.137210E-01  mag=     0.0000
       N       E                     dE             d eps       ncg     rms          rms(c)
DAV:   1    -0.232690387917E+03    0.11079E-01   -0.11895E+00 27952   0.525E+00    0.252E-01
DAV:   2    -0.232702746831E+03   -0.12359E-01   -0.14473E-01 27720   0.134E+00    0.117E-01
DAV:   3    -0.232702950431E+03   -0.20360E-03   -0.53345E-03 41632   0.297E-01    0.692E-02
DAV:   4    -0.232702884681E+03    0.65750E-04   -0.39403E-04 41424   0.102E-01    0.341E-02
DAV:   5    -0.232702883069E+03    0.16115E-05   -0.12727E-04 40664   0.504E-02    0.144E-02
DAV:   6    -0.232702884869E+03   -0.18000E-05   -0.17153E-05 40936   0.206E-02    0.802E-03
DAV:   7    -0.232702885695E+03   -0.82627E-06   -0.55951E-06 31976   0.106E-02
  25 F= -.23270289E+03 E0= -.23270289E+03  d E =-.151393E-01  mag=     0.0000
       N       E                     dE             d eps       ncg     rms          rms(c)
DAV:   1    -0.232703085459E+03   -0.20059E-03   -0.55050E-01 28624   0.366E+00    0.200E-01
DAV:   2    -0.232710261401E+03   -0.71759E-02   -0.85454E-02 27472   0.947E-01    0.105E-01
DAV:   3    -0.232710346209E+03   -0.84808E-04   -0.32967E-03 41568   0.229E-01    0.660E-02
DAV:   4    -0.232710267571E+03    0.78638E-04   -0.43121E-04 41536   0.942E-02    0.228E-02
DAV:   5    -0.232710267012E+03    0.55886E-06   -0.10093E-04 36640   0.437E-02    0.140E-02
DAV:   6    -0.232710266125E+03    0.88756E-06   -0.28836E-05 41624   0.223E-02    0.711E-03
DAV:   7    -0.232710266281E+03   -0.15635E-06   -0.46021E-06 25376   0.106E-02
  26 F= -.23271027E+03 E0= -.23271027E+03  d E =-.738059E-02  mag=    -0.0000
       N       E                     dE             d eps       ncg     rms          rms(c)
DAV:   1    -0.232708505605E+03    0.17605E-02   -0.24347E-01 28592   0.243E+00    0.133E-01
DAV:   2    -0.232711686247E+03   -0.31806E-02   -0.37822E-02 27584   0.632E-01    0.703E-02
DAV:   3    -0.232711724014E+03   -0.37767E-04   -0.14659E-03 41624   0.153E-01    0.439E-02
DAV:   4    -0.232711689197E+03    0.34816E-04   -0.18911E-04 41696   0.625E-02    0.152E-02
DAV:   5    -0.232711688931E+03    0.26644E-06   -0.44490E-05 36944   0.290E-02    0.926E-03
DAV:   6    -0.232711688526E+03    0.40474E-06   -0.12417E-05 40976   0.147E-02    0.476E-03
DAV:   7    -0.232711688529E+03   -0.22983E-08   -0.17661E-06 20576   0.708E-03
  27 F= -.23271169E+03 E0= -.23271169E+03  d E =-.880283E-02  mag=    -0.0000
       N       E                     dE             d eps       ncg     rms          rms(c)
DAV:   1    -0.232712392843E+03   -0.70432E-03   -0.73631E-01 27712   0.375E+00    0.161E-01
DAV:   2    -0.232717282941E+03   -0.48901E-02   -0.57844E-02 31264   0.942E-01    0.941E-02
DAV:   3    -0.232717281100E+03    0.18402E-05   -0.20115E-03 40032   0.203E-01    0.610E-02
DAV:   4    -0.232717213463E+03    0.67637E-04   -0.41539E-04 42432   0.895E-02    0.248E-02
DAV:   5    -0.232717212673E+03    0.78952E-06   -0.98196E-05 38344   0.433E-02    0.142E-02
DAV:   6    -0.232717212794E+03   -0.12045E-06   -0.28907E-05 38208   0.228E-02    0.677E-03
DAV:   7    -0.232717213163E+03   -0.36956E-06   -0.48926E-06 27696   0.101E-02
  28 F= -.23271721E+03 E0= -.23271721E+03  d E =-.552463E-02  mag=    -0.0000
       N       E                     dE             d eps       ncg     rms          rms(c)
DAV:   1    -0.232715674267E+03    0.15385E-02   -0.43241E-01 27744   0.287E+00    0.124E-01
DAV:   2    -0.232718539372E+03   -0.28651E-02   -0.33888E-02 31152   0.721E-01    0.716E-02
DAV:   3    -0.232718542309E+03   -0.29373E-05   -0.11973E-03 40008   0.156E-01    0.467E-02
DAV:   4    -0.232718503244E+03    0.39065E-04   -0.23947E-04 42416   0.683E-02    0.191E-02
DAV:   5    -0.232718502935E+03    0.30921E-06   -0.57900E-05 38168   0.333E-02    0.109E-02
DAV:   6    -0.232718502988E+03   -0.53161E-07   -0.16548E-05 38240   0.174E-02    0.521E-03
DAV:   7    -0.232718503195E+03   -0.20746E-06   -0.27554E-06 24136   0.761E-03
  29 F= -.23271850E+03 E0= -.23271850E+03  d E =-.681467E-02  mag=     0.0000
       N       E                     dE             d eps       ncg     rms          rms(c)
DAV:   1    -0.232717919453E+03    0.58353E-03   -0.30602E-01 28336   0.265E+00    0.138E-01
DAV:   2    -0.232720895343E+03   -0.29759E-02   -0.36331E-02 27888   0.660E-01    0.674E-02
DAV:   3    -0.232720946477E+03   -0.51134E-04   -0.14234E-03 41976   0.154E-01    0.416E-02
DAV:   4    -0.232720918021E+03    0.28457E-04   -0.14512E-04 41008   0.557E-02    0.160E-02
DAV:   5    -0.232720919506E+03   -0.14853E-05   -0.43747E-05 38912   0.279E-02    0.941E-03
DAV:   6    -0.232720918975E+03    0.53050E-06   -0.85143E-06 37168   0.134E-02
  30 F= -.23272092E+03 E0= -.23272092E+03  d E =-.241578E-02  mag=    -0.0000
       N       E                     dE             d eps       ncg     rms          rms(c)
DAV:   1    -0.232719922982E+03    0.99652E-03   -0.15545E-01 28360   0.189E+00    0.986E-02
DAV:   2    -0.232721442605E+03   -0.15196E-02   -0.18515E-02 28096   0.472E-01    0.483E-02
DAV:   3    -0.232721468844E+03   -0.26239E-04   -0.71966E-04 41872   0.110E-01    0.299E-02
DAV:   4    -0.232721455234E+03    0.13610E-04   -0.76672E-05 41128   0.406E-02    0.113E-02
DAV:   5    -0.232721456321E+03   -0.10868E-05   -0.22164E-05 38792   0.199E-02    0.680E-03
DAV:   6    -0.232721456071E+03    0.24988E-06   -0.39133E-06 27904   0.975E-03
  31 F= -.23272146E+03 E0= -.23272146E+03  d E =-.295288E-02  mag=     0.0000
       N       E                     dE             d eps       ncg     rms          rms(c)
DAV:   1    -0.232721738854E+03   -0.28253E-03   -0.21542E-01 27696   0.194E+00    0.101E-01
DAV:   2    -0.232722710268E+03   -0.97141E-03   -0.13315E-02 34768   0.471E-01    0.572E-02
DAV:   3    -0.232722669580E+03    0.40688E-04   -0.47291E-04 41168   0.103E-01    0.299E-02
DAV:   4    -0.232722651994E+03    0.17586E-04   -0.92792E-05 40904   0.433E-02    0.125E-02
DAV:   5    -0.232722649936E+03    0.20579E-05   -0.16626E-05 40192   0.186E-02    0.603E-03
DAV:   6    -0.232722649730E+03    0.20578E-06   -0.32612E-06 24696   0.804E-03
  32 F= -.23272265E+03 E0= -.23272265E+03  d E =-.119366E-02  mag=    -0.0000
       N       E                     dE             d eps       ncg     rms          rms(c)
DAV:   1    -0.232722399468E+03    0.25047E-03   -0.12561E-01 27696   0.148E+00    0.772E-02
DAV:   2    -0.232722966060E+03   -0.56659E-03   -0.77566E-03 34712   0.359E-01    0.437E-02
DAV:   3    -0.232722942386E+03    0.23675E-04   -0.27466E-04 41112   0.789E-02    0.229E-02
DAV:   4    -0.232722931987E+03    0.10399E-04   -0.53636E-05 40896   0.330E-02    0.960E-03
DAV:   5    -0.232722930654E+03    0.13335E-05   -0.95392E-06 37504   0.141E-02    0.462E-03
DAV:   6    -0.232722930427E+03    0.22694E-06   -0.17940E-06 20104   0.628E-03
  33 F= -.23272293E+03 E0= -.23272293E+03  d E =-.147436E-02  mag=     0.0000
       N       E                     dE             d eps       ncg     rms          rms(c)
DAV:   1    -0.232723076533E+03   -0.14588E-03   -0.13770E-01 27304   0.146E+00    0.851E-02
DAV:   2    -0.232723508414E+03   -0.43188E-03   -0.66194E-03 36976   0.360E-01    0.459E-02
DAV:   3    -0.232723471434E+03    0.36980E-04   -0.26110E-04 42048   0.788E-02    0.212E-02
DAV:   4    -0.232723462729E+03    0.87055E-05   -0.46483E-05 40208   0.345E-02    0.892E-03
DAV:   5    -0.232723462706E+03    0.22853E-07   -0.90140E-06 35440   0.133E-02
  34 F= -.23272346E+03 E0= -.23272346E+03  d E =-.532279E-03  mag=     0.0000
       N       E                     dE             d eps       ncg     rms          rms(c)
DAV:   1    -0.232723452515E+03    0.10213E-04   -0.21428E-02 27352   0.574E-01    0.339E-02
DAV:   2    -0.232723521017E+03   -0.68501E-04   -0.10252E-03 37080   0.141E-01    0.183E-02
DAV:   3    -0.232723515879E+03    0.51378E-05   -0.40112E-05 41864   0.312E-02    0.855E-03
DAV:   4    -0.232723514955E+03    0.92411E-06   -0.77232E-06 39520   0.138E-02
  35 F= -.23272351E+03 E0= -.23272351E+03  d E =-.584528E-03  mag=     0.0000
       N       E                     dE             d eps       ncg     rms          rms(c)
DAV:   1    -0.232723624615E+03   -0.10874E-03   -0.54872E-02 27248   0.862E-01    0.413E-02
DAV:   2    -0.232723773528E+03   -0.14891E-03   -0.19895E-03 36688   0.208E-01    0.247E-02
DAV:   3    -0.232723762432E+03    0.11096E-04   -0.78268E-05 41200   0.418E-02    0.134E-02
DAV:   4    -0.232723758192E+03    0.42404E-05   -0.23928E-05 39136   0.203E-02    0.527E-03
DAV:   5    -0.232723757746E+03    0.44559E-06   -0.43327E-06 25120   0.977E-03
  36 F= -.23272376E+03 E0= -.23272376E+03  d E =-.242792E-03  mag=     0.0000
       N       E                     dE             d eps       ncg     rms          rms(c)
DAV:   1    -0.232723755665E+03    0.25267E-05   -0.14744E-02 27400   0.447E-01    0.214E-02
DAV:   2    -0.232723797416E+03   -0.41750E-04   -0.54547E-04 36752   0.109E-01    0.130E-02
DAV:   3    -0.232723794279E+03    0.31362E-05   -0.20345E-05 40104   0.218E-02    0.718E-03
DAV:   4    -0.232723792939E+03    0.13400E-05   -0.73574E-06 35528   0.112E-02    0.278E-03
DAV:   5    -0.232723792764E+03    0.17498E-06   -0.12844E-06 18960   0.555E-03
  37 F= -.23272379E+03 E0= -.23272379E+03  d E =-.277810E-03  mag=    -0.0000
       N       E                     dE             d eps       ncg     rms          rms(c)
DAV:   1    -0.232723610867E+03    0.18207E-03   -0.45033E-02 28368   0.910E-01    0.418E-02
DAV:   2    -0.232723919774E+03   -0.30891E-03   -0.36698E-03 28864   0.221E-01    0.202E-02
DAV:   3    -0.232723926891E+03   -0.71169E-05   -0.16398E-04 40328   0.493E-02    0.139E-02
DAV:   4    -0.232723923451E+03    0.34396E-05   -0.26536E-05 40144   0.217E-02    0.504E-03
DAV:   5    -0.232723923316E+03    0.13489E-06   -0.51794E-06 28248   0.983E-03
  38 F= -.23272392E+03 E0= -.23272392E+03  d E =-.130552E-03  mag=    -0.0000
       N       E                     dE             d eps       ncg     rms          rms(c)
DAV:   1    -0.232723922348E+03    0.11025E-05   -0.18064E-04 30176   0.576E-02    0.271E-03
DAV:   2    -0.232723923526E+03   -0.11776E-05   -0.14684E-05 29200   0.141E-02    0.149E-03
DAV:   3    -0.232723923504E+03    0.22263E-07   -0.51403E-07 22144   0.318E-03
  39 F= -.23272392E+03 E0= -.23272392E+03  d E =-.130739E-03  mag=    -0.0000
       N       E                     dE             d eps       ncg     rms          rms(c)
DAV:   1    -0.232723919515E+03    0.40108E-05   -0.31761E-02 27344   0.681E-01    0.275E-02
DAV:   2    -0.232724037669E+03   -0.11815E-03   -0.14168E-03 34320   0.161E-01    0.173E-02
DAV:   3    -0.232724035325E+03    0.23438E-05   -0.50816E-05 41192   0.328E-02    0.108E-02
DAV:   4    -0.232724033126E+03    0.21989E-05   -0.16674E-05 38752   0.163E-02    0.424E-03
DAV:   5    -0.232724033158E+03   -0.31484E-07   -0.29725E-06 23528   0.753E-03
  40 F= -.23272403E+03 E0= -.23272403E+03  d E =-.109654E-03  mag=    -0.0000
