       N       E                     dE             d eps       ncg     rms          rms(c)
DAV:   1     0.656360015912E+03    0.65636E+03   -0.62753E+04 12016   0.135E+03
DAV:   2    -0.218233147847E+03   -0.87459E+03   -0.84593E+03 15304   0.292E+02
DAV:   3    -0.279121393727E+03   -0.60888E+02   -0.60489E+02 13928   0.817E+01
DAV:   4    -0.280120469746E+03   -0.99908E+00   -0.99533E+00 14432   0.114E+01
DAV:   5    -0.280141193337E+03   -0.20724E-01   -0.20710E-01 14208   0.162E+00    0.347E+01
DAV:   6    -0.235391716742E+03    0.44749E+02   -0.18548E+02 14096   0.412E+01    0.912E+00
DAV:   7    -0.235582731017E+03   -0.19101E+00   -0.11340E+01 14176   0.111E+01    0.654E+00
DAV:   8    -0.235229942652E+03    0.35279E+00   -0.18326E+00 14112   0.446E+00    0.228E+00
DAV:   9    -0.235140864302E+03    0.89078E-01   -0.23358E-01 14488   0.234E+00    0.871E-01
DAV:  10    -0.235137179506E+03    0.36848E-02   -0.24812E-01 13808   0.147E+00    0.435E-01
DAV:  11    -0.235135079027E+03    0.21005E-02   -0.20603E-02 14392   0.571E-01    0.181E-01
DAV:  12    -0.235135231692E+03   -0.15267E-03   -0.76006E-03 13784   0.284E-01    0.775E-02
DAV:  13    -0.235135277906E+03   -0.46214E-04   -0.78257E-04 14936   0.103E-01    0.509E-02
DAV:  14    -0.235135248083E+03    0.29823E-04   -0.43600E-04 14112   0.662E-02    0.175E-02
DAV:  15    -0.235135249322E+03   -0.12391E-05   -0.79632E-05 14392   0.335E-02    0.994E-03
DAV:  16    -0.235135249652E+03   -0.32992E-06   -0.15263E-05 14392   0.135E-02    0.706E-03
DAV:  17    -0.235135248823E+03    0.82886E-06   -0.28716E-06 11208   0.704E-03
   1 F= -.23513525E+03 E0= -.23513525E+03  d E =-.235135E+03  mag=     0.0000
       N       E                     dE             d eps       ncg     rms          rms(c)
DAV:   1    -0.236919770738E+03   -0.17845E+01   -0.51095E+02 12128   0.809E+01    0.476E+00
DAV:   2    -0.237077661034E+03   -0.15789E+00   -0.12940E+01 13984   0.127E+01    0.403E+00
DAV:   3    -0.236504241908E+03    0.57342E+00   -0.17292E+00 13984   0.525E+00    0.131E+00
DAV:   4    -0.236453931483E+03    0.50310E-01   -0.42095E-01 14992   0.261E+00    0.790E-01
DAV:   5    -0.236429552206E+03    0.24379E-01   -0.91980E-02 14816   0.133E+00    0.370E-01
DAV:   6    -0.236427931640E+03    0.16206E-02   -0.35558E-02 14272   0.673E-01    0.234E-01
DAV:   7    -0.236426681199E+03    0.12504E-02   -0.64651E-03 15320   0.350E-01    0.996E-02
DAV:   8    -0.236426447252E+03    0.23395E-03   -0.17315E-03 14480   0.190E-01    0.557E-02
DAV:   9    -0.236426433349E+03    0.13903E-04   -0.57895E-04 14960   0.901E-02    0.263E-02
DAV:  10    -0.236426438272E+03   -0.49236E-05   -0.88127E-05 14432   0.382E-02    0.149E-02
DAV:  11    -0.236426437240E+03    0.10328E-05   -0.45265E-05 13808   0.217E-02    0.901E-03
DAV:  12    -0.236426436190E+03    0.10492E-05   -0.90520E-06 13808   0.113E-02    0.467E-03
DAV:  13    -0.236426436205E+03   -0.14870E-07   -0.34628E-06 11576   0.677E-03
   2 F= -.23642644E+03 E0= -.23642644E+03  d E =-.129119E+01  mag=     0.0000
       N       E                     dE             d eps       ncg     rms          rms(c)
DAV:   1    -0.237243349686E+03   -0.81691E+00   -0.75202E+01 12000   0.315E+01    0.230E+00
DAV:   2    -0.237200600680E+03    0.42749E-01   -0.18845E+00 13984   0.483E+00    0.134E+00
DAV:   3    -0.237132853801E+03    0.67747E-01   -0.17453E-01 14384   0.186E+00    0.551E-01
DAV:   4    -0.237122764691E+03    0.10089E-01   -0.56318E-02 14064   0.973E-01    0.253E-01
DAV:   5    -0.237120620558E+03    0.21441E-02   -0.13756E-02 14400   0.474E-01    0.107E-01
DAV:   6    -0.237120493060E+03    0.12750E-03   -0.24625E-03 14240   0.205E-01    0.807E-02
DAV:   7    -0.237120365542E+03    0.12752E-03   -0.11702E-03 13728   0.134E-01    0.445E-02
DAV:   8    -0.237120315809E+03    0.49732E-04   -0.22231E-04 15984   0.712E-02    0.217E-02
DAV:   9    -0.237120317178E+03   -0.13683E-05   -0.10906E-04 13440   0.346E-02    0.849E-03
DAV:  10    -0.237120317321E+03   -0.14387E-06   -0.11667E-05 13744   0.113E-02    0.485E-03
DAV:  11    -0.237120316940E+03    0.38168E-06   -0.90676E-07  7800   0.468E-03
   3 F= -.23712032E+03 E0= -.23712032E+03  d E =-.198507E+01  mag=     0.0000
       N       E                     dE             d eps       ncg     rms          rms(c)
DAV:   1    -0.237259881327E+03   -0.13956E+00   -0.45600E+01 11968   0.226E+01    0.122E+00
DAV:   2    -0.237294881513E+03   -0.35000E-01   -0.10286E+00 13984   0.324E+00    0.813E-01
DAV:   3    -0.237272510178E+03    0.22371E-01   -0.46704E-02 14240   0.937E-01    0.406E-01
DAV:   4    -0.237267668512E+03    0.48417E-02   -0.27646E-02 13968   0.630E-01    0.120E-01
DAV:   5    -0.237267710962E+03   -0.42450E-04   -0.50386E-03 14496   0.281E-01    0.787E-02
DAV:   6    -0.237267704771E+03    0.61910E-05   -0.10393E-03 14288   0.116E-01    0.512E-02
DAV:   7    -0.237267678302E+03    0.26469E-04   -0.12387E-04 14368   0.421E-02    0.271E-02
DAV:   8    -0.237267669736E+03    0.85658E-05   -0.53655E-05 14256   0.276E-02    0.109E-02
DAV:   9    -0.237267669372E+03    0.36349E-06   -0.13473E-05 15696   0.178E-02    0.438E-03
DAV:  10    -0.237267669999E+03   -0.62674E-06   -0.10351E-05 13088   0.104E-02    0.346E-03
DAV:  11    -0.237267669715E+03    0.28387E-06   -0.10571E-06  7616   0.497E-03
   4 F= -.23726767E+03 E0= -.23726767E+03  d E =-.147353E+00  mag=    -0.0000
       N       E                     dE             d eps       ncg     rms          rms(c)
DAV:   1    -0.237272248023E+03   -0.45780E-02   -0.10191E+00 12064   0.340E+00    0.172E-01
DAV:   2    -0.237273053462E+03   -0.80544E-03   -0.22332E-02 14016   0.475E-01    0.123E-01
DAV:   3    -0.237272538466E+03    0.51500E-03   -0.11489E-03 14224   0.141E-01    0.577E-02
DAV:   4    -0.237272449441E+03    0.89025E-04   -0.52494E-04 14160   0.849E-02    0.184E-02
DAV:   5    -0.237272444448E+03    0.49934E-05   -0.82550E-05 14448   0.375E-02    0.108E-02
DAV:   6    -0.237272443502E+03    0.94608E-06   -0.21307E-05 14336   0.175E-02    0.727E-03
DAV:   7    -0.237272442661E+03    0.84102E-06   -0.28646E-06 10256   0.637E-03
   5 F= -.23727244E+03 E0= -.23727244E+03  d E =-.152126E+00  mag=     0.0000
       N       E                     dE             d eps       ncg     rms          rms(c)
DAV:   1    -0.237357768513E+03   -0.85325E-01   -0.16694E+01 11968   0.143E+01    0.123E+00
DAV:   2    -0.237349581251E+03    0.81873E-02   -0.36859E-01 14192   0.201E+00    0.821E-01
DAV:   3    -0.237327176484E+03    0.22405E-01   -0.31585E-02 14320   0.787E-01    0.294E-01
DAV:   4    -0.237325783649E+03    0.13928E-02   -0.18548E-02 14320   0.463E-01    0.136E-01
DAV:   5    -0.237325415158E+03    0.36849E-03   -0.27605E-03 14496   0.224E-01    0.523E-02
DAV:   6    -0.237325444505E+03   -0.29347E-04   -0.62946E-04 13280   0.899E-02    0.347E-02
DAV:   7    -0.237325426849E+03    0.17656E-04   -0.88143E-05 13728   0.363E-02    0.132E-02
DAV:   8    -0.237325429387E+03   -0.25384E-05   -0.36230E-05 14080   0.206E-02    0.103E-02
DAV:   9    -0.237325427590E+03    0.17977E-05   -0.90229E-06 13696   0.134E-02    0.359E-03
DAV:  10    -0.237325427925E+03   -0.33570E-06   -0.57852E-06 12736   0.773E-03
   6 F= -.23732543E+03 E0= -.23732543E+03  d E =-.529853E-01  mag=     0.0000
       N       E                     dE             d eps       ncg     rms          rms(c)
DAV:   1    -0.237327501528E+03   -0.20739E-02   -0.33018E-01 12000   0.202E+00    0.173E-01
DAV:   2    -0.237327381056E+03    0.12047E-03   -0.75826E-03 14192   0.287E-01    0.116E-01
DAV:   3    -0.237326946728E+03    0.43433E-03   -0.57296E-04 14320   0.107E-01    0.443E-02
DAV:   4    -0.237326910660E+03    0.36068E-04   -0.38611E-04 14384   0.673E-02    0.195E-02
DAV:   5    -0.237326903156E+03    0.75044E-05   -0.60715E-05 14192   0.334E-02    0.744E-03
DAV:   6    -0.237326904013E+03   -0.85645E-06   -0.13970E-05 13072   0.134E-02    0.492E-03
DAV:   7    -0.237326903690E+03    0.32227E-06   -0.14856E-06  7912   0.506E-03
   7 F= -.23732690E+03 E0= -.23732690E+03  d E =-.544610E-01  mag=    -0.0000
       N       E                     dE             d eps       ncg     rms          rms(c)
DAV:   1    -0.237323487575E+03    0.34164E-02   -0.72677E+00 11968   0.986E+00    0.581E-01
DAV:   2    -0.237349844614E+03   -0.26357E-01   -0.37614E-01 13232   0.189E+00    0.350E-01
DAV:   3    -0.237347714862E+03    0.21298E-02   -0.86619E-03 14560   0.388E-01    0.199E-01
DAV:   4    -0.237347056135E+03    0.65873E-03   -0.53610E-03 14080   0.271E-01    0.733E-02
DAV:   5    -0.237346974829E+03    0.81306E-04   -0.73229E-04 14960   0.120E-01    0.467E-02
DAV:   6    -0.237346971976E+03    0.28537E-05   -0.49879E-04 14224   0.773E-02    0.232E-02
DAV:   7    -0.237346966818E+03    0.51576E-05   -0.57224E-05 14416   0.316E-02    0.112E-02
DAV:   8    -0.237346967180E+03   -0.36224E-06   -0.25615E-05 13968   0.164E-02    0.609E-03
DAV:   9    -0.237346966589E+03    0.59097E-06   -0.15561E-06  8240   0.628E-03
   8 F= -.23734697E+03 E0= -.23734697E+03  d E =-.200629E-01  mag=     0.0000
       N       E                     dE             d eps       ncg     rms          rms(c)
DAV:   1    -0.237346993426E+03   -0.26245E-04   -0.99180E-02 12032   0.115E+00    0.677E-02
DAV:   2    -0.237347348625E+03   -0.35520E-03   -0.50418E-03 13200   0.220E-01    0.402E-02
DAV:   3    -0.237347321697E+03    0.26928E-04   -0.11340E-04 14544   0.440E-02    0.229E-02
DAV:   4    -0.237347313944E+03    0.77523E-05   -0.68204E-05 14112   0.309E-02    0.823E-03
DAV:   5    -0.237347313348E+03    0.59686E-06   -0.96236E-06 14048   0.137E-02
   9 F= -.23734731E+03 E0= -.23734731E+03  d E =-.204097E-01  mag=    -0.0000
       N       E                     dE             d eps       ncg     rms          rms(c)
DAV:   1    -0.237355745296E+03   -0.84314E-02   -0.30432E+00 11968   0.616E+00    0.299E-01
DAV:   2    -0.237358056048E+03   -0.23108E-02   -0.57814E-02 13952   0.761E-01    0.184E-01
DAV:   3    -0.237356897627E+03    0.11584E-02   -0.27734E-03 14576   0.238E-01    0.865E-02
DAV:   4    -0.237356668545E+03    0.22908E-03   -0.15273E-03 14352   0.150E-01    0.324E-02
DAV:   5    -0.237356653731E+03    0.14814E-04   -0.22202E-04 14368   0.654E-02    0.208E-02
DAV:   6    -0.237356652659E+03    0.10714E-05   -0.79608E-05 14352   0.326E-02    0.125E-02
DAV:   7    -0.237356650370E+03    0.22894E-05   -0.86365E-06 14608   0.133E-02    0.701E-03
DAV:   8    -0.237356649802E+03    0.56749E-06   -0.75484E-06 13760   0.975E-03
  10 F= -.23735665E+03 E0= -.23735665E+03  d E =-.933645E-02  mag=    -0.0000
       N       E                     dE             d eps       ncg     rms          rms(c)
DAV:   1    -0.237356666274E+03   -0.15904E-04   -0.79677E-03 12544   0.316E-01    0.151E-02
DAV:   2    -0.237356673786E+03   -0.75121E-05   -0.15999E-04 13968   0.402E-02    0.959E-03
DAV:   3    -0.237356670967E+03    0.28192E-05   -0.71282E-06 14496   0.120E-02    0.484E-03
DAV:   4    -0.237356670322E+03    0.64462E-06   -0.44216E-06 13600   0.822E-03
  11 F= -.23735667E+03 E0= -.23735667E+03  d E =-.935697E-02  mag=    -0.0000
       N       E                     dE             d eps       ncg     rms          rms(c)
DAV:   1    -0.237358613068E+03   -0.19421E-02   -0.26841E-01 12016   0.192E+00    0.117E-01
DAV:   2    -0.237358917083E+03   -0.30401E-03   -0.78026E-03 13584   0.291E-01    0.698E-02
DAV:   3    -0.237358790223E+03    0.12686E-03   -0.26196E-04 14512   0.698E-02    0.356E-02
DAV:   4    -0.237358759380E+03    0.30843E-04   -0.17943E-04 14304   0.478E-02    0.123E-02
DAV:   5    -0.237358757669E+03    0.17113E-05   -0.24510E-05 15424   0.221E-02    0.646E-03
DAV:   6    -0.237358758074E+03   -0.40504E-06   -0.87965E-06 13344   0.992E-03
  12 F= -.23735876E+03 E0= -.23735876E+03  d E =-.208775E-02  mag=     0.0000
       N       E                     dE             d eps       ncg     rms          rms(c)
DAV:   1    -0.237359024966E+03   -0.26730E-03   -0.90016E-02 12032   0.111E+00    0.679E-02
DAV:   2    -0.237359128490E+03   -0.10352E-03   -0.26207E-03 13584   0.169E-01    0.403E-02
DAV:   3    -0.237359086299E+03    0.42191E-04   -0.88689E-05 14528   0.403E-02    0.205E-02
DAV:   4    -0.237359076221E+03    0.10078E-04   -0.58151E-05 14288   0.272E-02    0.709E-03
DAV:   5    -0.237359075750E+03    0.47065E-06   -0.78004E-06 14528   0.127E-02
  13 F= -.23735908E+03 E0= -.23735908E+03  d E =-.240543E-02  mag=     0.0000
       N       E                     dE             d eps       ncg     rms          rms(c)
DAV:   1    -0.237359414050E+03   -0.33783E-03   -0.16184E-01 12032   0.152E+00    0.943E-02
DAV:   2    -0.237360060035E+03   -0.64598E-03   -0.94077E-03 13040   0.298E-01    0.505E-02
DAV:   3    -0.237360027836E+03    0.32199E-04   -0.21503E-04 14480   0.555E-02    0.257E-02
DAV:   4    -0.237360018446E+03    0.93897E-05   -0.46615E-05 14320   0.267E-02    0.985E-03
DAV:   5    -0.237360017195E+03    0.12506E-05   -0.84735E-06 14528   0.130E-02    0.452E-03
DAV:   6    -0.237360017047E+03    0.14799E-06   -0.29040E-06 10208   0.639E-03
  14 F= -.23736002E+03 E0= -.23736002E+03  d E =-.941297E-03  mag=     0.0000
       N       E                     dE             d eps       ncg     rms          rms(c)
DAV:   1    -0.237360011202E+03    0.59935E-05   -0.14158E-02 12112   0.450E-01    0.278E-02
DAV:   2    -0.237360067219E+03   -0.56017E-04   -0.82139E-04 13056   0.881E-02    0.148E-02
DAV:   3    -0.237360064170E+03    0.30487E-05   -0.18615E-05 14480   0.163E-02    0.760E-03
DAV:   4    -0.237360063100E+03    0.10697E-05   -0.36816E-06 12720   0.781E-03    0.287E-03
DAV:   5    -0.237360062851E+03    0.24961E-06   -0.78894E-07  7600   0.407E-03
  15 F= -.23736006E+03 E0= -.23736006E+03  d E =-.987100E-03  mag=     0.0000
       N       E                     dE             d eps       ncg     rms          rms(c)
DAV:   1    -0.237360516538E+03   -0.45344E-03   -0.20455E-01 12032   0.162E+00    0.663E-02
DAV:   2    -0.237360717813E+03   -0.20128E-03   -0.35347E-03 13872   0.193E-01    0.438E-02
DAV:   3    -0.237360669725E+03    0.48088E-04   -0.15010E-04 14480   0.538E-02    0.227E-02
DAV:   4    -0.237360659828E+03    0.98966E-05   -0.85713E-05 14208   0.332E-02    0.898E-03
DAV:   5    -0.237360659556E+03    0.27219E-06   -0.11674E-05 14416   0.151E-02    0.514E-03
DAV:   6    -0.237360659898E+03   -0.34234E-06   -0.49636E-06 13008   0.735E-03
  16 F= -.23736066E+03 E0= -.23736066E+03  d E =-.597048E-03  mag=     0.0000
       N       E                     dE             d eps       ncg     rms          rms(c)
DAV:   1    -0.237360659842E+03   -0.28617E-06   -0.14104E-05 12416   0.139E-02    0.180E-03
DAV:   2    -0.237360659906E+03   -0.63356E-07   -0.48513E-07  7632   0.238E-03
  17 F= -.23736066E+03 E0= -.23736066E+03  d E =-.597055E-03  mag=    -0.0000
       N       E                     dE             d eps       ncg     rms          rms(c)
DAV:   1    -0.237360653665E+03    0.61768E-05   -0.11473E-01 12032   0.129E+00    0.653E-02
DAV:   2    -0.237360882504E+03   -0.22884E-03   -0.39158E-03 13456   0.208E-01    0.421E-02
DAV:   3    -0.237360835851E+03    0.46652E-04   -0.12598E-04 14656   0.491E-02    0.206E-02
DAV:   4    -0.237360825706E+03    0.10146E-04   -0.49014E-05 14448   0.273E-02    0.668E-03
DAV:   5    -0.237360825809E+03   -0.10329E-06   -0.96004E-06 14256   0.123E-02
  18 F= -.23736083E+03 E0= -.23736083E+03  d E =-.165903E-03  mag=     0.0000
       N       E                     dE             d eps       ncg     rms          rms(c)
DAV:   1    -0.237360849887E+03   -0.24182E-04   -0.10434E-02 12056   0.390E-01    0.193E-02
DAV:   2    -0.237360870016E+03   -0.20129E-04   -0.35510E-04 13424   0.626E-02    0.129E-02
DAV:   3    -0.237360865610E+03    0.44061E-05   -0.11922E-05 14608   0.148E-02    0.623E-03
DAV:   4    -0.237360864603E+03    0.10076E-05   -0.42831E-06 13104   0.792E-03    0.193E-03
DAV:   5    -0.237360864537E+03    0.65827E-07   -0.85862E-07  7728   0.371E-03
  19 F= -.23736086E+03 E0= -.23736086E+03  d E =-.204631E-03  mag=    -0.0000
       N       E                     dE             d eps       ncg     rms          rms(c)
DAV:   1    -0.237360902814E+03   -0.38211E-04   -0.20175E-02 12064   0.510E-01    0.225E-02
DAV:   2    -0.237360920089E+03   -0.17276E-04   -0.38239E-04 14432   0.623E-02    0.167E-02
DAV:   3    -0.237360911497E+03    0.85928E-05   -0.14421E-05 14368   0.164E-02    0.894E-03
DAV:   4    -0.237360908723E+03    0.27732E-05   -0.12724E-05 14240   0.133E-02    0.267E-03
DAV:   5    -0.237360908616E+03    0.10747E-06   -0.21628E-06  8768   0.614E-03
  20 F= -.23736091E+03 E0= -.23736091E+03  d E =-.440792E-04  mag=     0.0000
