       N       E                     dE             d eps       ncg     rms          rms(c)
DAV:   1     0.998455119902E+03    0.99846E+03   -0.63181E+04 23992   0.143E+03
DAV:   2    -0.146876361134E+03   -0.11453E+04   -0.10882E+04 33976   0.398E+02
DAV:   3    -0.275517287428E+03   -0.12864E+03   -0.12764E+03 36424   0.140E+02
DAV:   4    -0.279372492354E+03   -0.38552E+01   -0.38425E+01 37824   0.291E+01
DAV:   5    -0.279456634689E+03   -0.84142E-01   -0.84003E-01 35880   0.407E+00    0.372E+01
DAV:   6    -0.228732690792E+03    0.50724E+02   -0.23904E+02 39840   0.602E+01    0.109E+01
DAV:   7    -0.229183406938E+03   -0.45072E+00   -0.23074E+01 38232   0.210E+01    0.699E+00
DAV:   8    -0.228787970917E+03    0.39544E+00   -0.22222E+00 36632   0.716E+00    0.392E+00
DAV:   9    -0.228702522652E+03    0.85448E-01   -0.81440E-01 32608   0.392E+00    0.101E+00
DAV:  10    -0.228700629674E+03    0.18930E-02   -0.13428E-01 40248   0.217E+00    0.585E-01
DAV:  11    -0.228703295803E+03   -0.26661E-02   -0.67750E-02 32776   0.679E-01    0.470E-01
DAV:  12    -0.228700536264E+03    0.27595E-02   -0.49487E-02 35720   0.867E-01    0.207E-01
DAV:  13    -0.228701105021E+03   -0.56876E-03   -0.48416E-03 35224   0.275E-01    0.108E-01
DAV:  14    -0.228701284686E+03   -0.17966E-03   -0.20928E-03 36160   0.190E-01    0.576E-02
DAV:  15    -0.228701415415E+03   -0.13073E-03   -0.64835E-04 36448   0.120E-01    0.319E-02
DAV:  16    -0.228701362592E+03    0.52823E-04   -0.15951E-04 37200   0.688E-02    0.181E-02
DAV:  17    -0.228701366903E+03   -0.43108E-05   -0.46651E-05 35936   0.310E-02    0.934E-03
DAV:  18    -0.228701395739E+03   -0.28836E-04   -0.20714E-05 34648   0.174E-02    0.470E-03
DAV:  19    -0.228701380337E+03    0.15402E-04   -0.46667E-06 22816   0.117E-02    0.187E-03
DAV:  20    -0.228701376597E+03    0.37404E-05   -0.13468E-06 15744   0.557E-03    0.179E-03
DAV:  21    -0.228701375208E+03    0.13886E-05   -0.98677E-07 15232   0.391E-03    0.129E-03
DAV:  22    -0.228701373173E+03    0.20347E-05   -0.11349E-06 15512   0.421E-03    0.855E-04
DAV:  23    -0.228701371326E+03    0.18473E-05   -0.84093E-07 16032   0.376E-03    0.676E-04
DAV:  24    -0.228701369358E+03    0.19676E-05   -0.43636E-07 15344   0.330E-03    0.563E-04
DAV:  25    -0.228701364290E+03    0.50686E-05   -0.17928E-06 18168   0.370E-03    0.432E-04
DAV:  26    -0.228701361705E+03    0.25846E-05   -0.62562E-07 15472   0.360E-03    0.329E-04
DAV:  27    -0.228701361749E+03   -0.44189E-07   -0.18083E-07 15232   0.284E-03
   1 F= -.22870136E+03 E0= -.22870136E+03  d E =-.228701E+03  mag=    -0.0054
       N       E                     dE             d eps       ncg     rms          rms(c)
DAV:   1    -0.225953246044E+03    0.27481E+01   -0.10012E+03 25024   0.141E+02    0.850E+00
DAV:   2    -0.231620047699E+03   -0.56668E+01   -0.81612E+01 31808   0.414E+01    0.707E+00
DAV:   3    -0.230592731997E+03    0.10273E+01   -0.36631E+00 38392   0.108E+01    0.426E+00
DAV:   4    -0.230137745234E+03    0.45499E+00   -0.30081E+00 33528   0.670E+00    0.199E+00
DAV:   5    -0.230086690373E+03    0.51055E-01   -0.57750E-01 35912   0.389E+00    0.142E+00
DAV:   6    -0.230057780609E+03    0.28910E-01   -0.29744E-01 31576   0.198E+00    0.549E-01
DAV:   7    -0.230056866470E+03    0.91414E-03   -0.37964E-02 33480   0.977E-01    0.291E-01
DAV:   8    -0.230056523120E+03    0.34335E-03   -0.88037E-03 35640   0.392E-01    0.105E-01
DAV:   9    -0.230056663683E+03   -0.14056E-03   -0.11385E-03 39016   0.163E-01    0.645E-02
DAV:  10    -0.230056670022E+03   -0.63382E-05   -0.49071E-04 34736   0.995E-02    0.241E-02
DAV:  11    -0.230056684390E+03   -0.14368E-04   -0.14333E-04 32080   0.512E-02    0.196E-02
DAV:  12    -0.230056681319E+03    0.30706E-05   -0.27692E-05 37760   0.254E-02    0.965E-03
DAV:  13    -0.230056682555E+03   -0.12359E-05   -0.18250E-05 33328   0.178E-02    0.493E-03
DAV:  14    -0.230056682427E+03    0.12776E-06   -0.22087E-06 18088   0.798E-03
   2 F= -.23005668E+03 E0= -.23005668E+03  d E =-.135532E+01  mag=     0.0000
       N       E                     dE             d eps       ncg     rms          rms(c)
DAV:   1    -0.230801071059E+03   -0.74439E+00   -0.19239E+02 25024   0.611E+01    0.405E+00
DAV:   2    -0.231489643405E+03   -0.68857E+00   -0.12345E+01 29688   0.160E+01    0.254E+00
DAV:   3    -0.231311172564E+03    0.17847E+00   -0.65593E-01 37312   0.423E+00    0.118E+00
DAV:   4    -0.231272418407E+03    0.38754E-01   -0.17776E-01 32376   0.175E+00    0.339E-01
DAV:   5    -0.231272774094E+03   -0.35569E-03   -0.29309E-02 34768   0.766E-01    0.203E-01
DAV:   6    -0.231272581057E+03    0.19304E-03   -0.38010E-03 36656   0.297E-01    0.118E-01
DAV:   7    -0.231272459744E+03    0.12131E-03   -0.55304E-04 36848   0.120E-01    0.608E-02
DAV:   8    -0.231272458918E+03    0.82637E-06   -0.34231E-04 40424   0.104E-01    0.242E-02
DAV:   9    -0.231272462266E+03   -0.33481E-05   -0.66769E-05 34632   0.381E-02    0.135E-02
DAV:  10    -0.231272463464E+03   -0.11978E-05   -0.26028E-05 34216   0.215E-02    0.772E-03
DAV:  11    -0.231272463883E+03   -0.41891E-06   -0.44098E-06 25632   0.121E-02
   3 F= -.23127246E+03 E0= -.23127246E+03  d E =-.257110E+01  mag=     0.0000
       N       E                     dE             d eps       ncg     rms          rms(c)
DAV:   1    -0.230416828110E+03    0.85564E+00   -0.26431E+02 25248   0.734E+01    0.320E+00
DAV:   2    -0.231807866045E+03   -0.13910E+01   -0.17671E+01 29936   0.188E+01    0.219E+00
DAV:   3    -0.231727817136E+03    0.80049E-01   -0.75201E-01 36664   0.444E+00    0.138E+00
DAV:   4    -0.231673246722E+03    0.54570E-01   -0.34960E-01 31200   0.251E+00    0.536E-01
DAV:   5    -0.231672287606E+03    0.95912E-03   -0.77909E-02 33752   0.144E+00    0.382E-01
DAV:   6    -0.231671299944E+03    0.98766E-03   -0.26500E-02 30968   0.670E-01    0.183E-01
DAV:   7    -0.231671292258E+03    0.76861E-05   -0.62958E-03 33528   0.375E-01    0.749E-02
DAV:   8    -0.231671229069E+03    0.63190E-04   -0.56436E-04 38088   0.144E-01    0.431E-02
DAV:   9    -0.231671254520E+03   -0.25451E-04   -0.40257E-04 39288   0.105E-01    0.281E-02
DAV:  10    -0.231671247156E+03    0.73643E-05   -0.10127E-04 29784   0.486E-02    0.115E-02
DAV:  11    -0.231671251729E+03   -0.45729E-05   -0.59621E-05 34272   0.299E-02    0.931E-03
DAV:  12    -0.231671250517E+03    0.12114E-05   -0.49443E-06 27096   0.140E-02    0.423E-03
DAV:  13    -0.231671250617E+03   -0.99436E-07   -0.55442E-06 27104   0.928E-03
   4 F= -.23167125E+03 E0= -.23167125E+03  d E =-.398787E+00  mag=    -0.0000
       N       E                     dE             d eps       ncg     rms          rms(c)
DAV:   1    -0.231744832777E+03   -0.73582E-01   -0.37061E+01 25024   0.277E+01    0.114E+00
DAV:   2    -0.231933332225E+03   -0.18850E+00   -0.23841E+00 28392   0.723E+00    0.819E-01
DAV:   3    -0.231922923541E+03    0.10409E-01   -0.10971E-01 35960   0.168E+00    0.518E-01
DAV:   4    -0.231915919760E+03    0.70038E-02   -0.46633E-02 33728   0.900E-01    0.204E-01
DAV:   5    -0.231915503516E+03    0.41624E-03   -0.90256E-03 33488   0.499E-01    0.143E-01
DAV:   6    -0.231915381031E+03    0.12249E-03   -0.44051E-03 34472   0.267E-01    0.765E-02
DAV:   7    -0.231915347159E+03    0.33872E-04   -0.81185E-04 35352   0.136E-01    0.392E-02
DAV:   8    -0.231915326758E+03    0.20400E-04   -0.17036E-04 37472   0.648E-02    0.167E-02
DAV:   9    -0.231915331274E+03   -0.45153E-05   -0.80993E-05 39464   0.470E-02    0.134E-02
DAV:  10    -0.231915328895E+03    0.23792E-05   -0.19511E-05 31072   0.202E-02    0.626E-03
DAV:  11    -0.231915329597E+03   -0.70264E-06   -0.12482E-05 33136   0.130E-02    0.340E-03
DAV:  12    -0.231915329752E+03   -0.15523E-06   -0.70046E-07 15232   0.561E-03
   5 F= -.23191533E+03 E0= -.23191533E+03  d E =-.642866E+00  mag=    -0.0000
       N       E                     dE             d eps       ncg     rms          rms(c)
DAV:   1    -0.232056839949E+03   -0.14151E+00   -0.40250E+01 25248   0.267E+01    0.131E+00
DAV:   2    -0.232189862713E+03   -0.13302E+00   -0.19088E+00 31232   0.672E+00    0.874E-01
DAV:   3    -0.232170865101E+03    0.18998E-01   -0.75291E-02 36944   0.148E+00    0.496E-01
DAV:   4    -0.232163831538E+03    0.70336E-02   -0.36936E-02 31616   0.859E-01    0.151E-01
DAV:   5    -0.232164054071E+03   -0.22253E-03   -0.93157E-03 31344   0.426E-01    0.122E-01
DAV:   6    -0.232163950166E+03    0.10391E-03   -0.25657E-03 36096   0.202E-01    0.594E-02
DAV:   7    -0.232163920353E+03    0.29812E-04   -0.25677E-04 33656   0.838E-02    0.315E-02
DAV:   8    -0.232163920907E+03   -0.55316E-06   -0.12042E-04 32368   0.441E-02    0.137E-02
DAV:   9    -0.232163919437E+03    0.14700E-05   -0.17723E-05 38536   0.240E-02    0.764E-03
DAV:  10    -0.232163919384E+03    0.53063E-07   -0.11727E-05 30448   0.130E-02    0.366E-03
DAV:  11    -0.232163919392E+03   -0.84474E-08   -0.13460E-06 16376   0.757E-03
   6 F= -.23216392E+03 E0= -.23216392E+03  d E =-.248590E+00  mag=     0.0000
       N       E                     dE             d eps       ncg     rms          rms(c)
DAV:   1    -0.232168760947E+03   -0.48416E-02   -0.86865E+00 25264   0.124E+01    0.612E-01
DAV:   2    -0.232197669042E+03   -0.28908E-01   -0.41545E-01 31312   0.313E+00    0.412E-01
DAV:   3    -0.232193510020E+03    0.41590E-02   -0.16240E-02 36744   0.685E-01    0.233E-01
DAV:   4    -0.232191985971E+03    0.15240E-02   -0.79897E-03 32968   0.403E-01    0.703E-02
DAV:   5    -0.232192028444E+03   -0.42472E-04   -0.19702E-03 30680   0.191E-01    0.560E-02
DAV:   6    -0.232192010685E+03    0.17759E-04   -0.56345E-04 36648   0.949E-02    0.278E-02
DAV:   7    -0.232192004239E+03    0.64453E-05   -0.52973E-05 34760   0.393E-02    0.155E-02
DAV:   8    -0.232192003798E+03    0.44173E-06   -0.23335E-05 33448   0.194E-02    0.698E-03
DAV:   9    -0.232192003598E+03    0.19958E-06   -0.25732E-06 20360   0.115E-02
   7 F= -.23219200E+03 E0= -.23219200E+03  d E =-.276674E+00  mag=     0.0000
       N       E                     dE             d eps       ncg     rms          rms(c)
DAV:   1    -0.232128695265E+03    0.63309E-01   -0.29551E+01 26096   0.259E+01    0.123E+00
DAV:   2    -0.232298095010E+03   -0.16940E+00   -0.22610E+00 29168   0.659E+00    0.686E-01
DAV:   3    -0.232293495031E+03    0.46000E-02   -0.99884E-02 36848   0.145E+00    0.348E-01
DAV:   4    -0.232291310191E+03    0.21848E-02   -0.14742E-02 37488   0.601E-01    0.140E-01
DAV:   5    -0.232291120621E+03    0.18957E-03   -0.30941E-03 35288   0.291E-01    0.861E-02
DAV:   6    -0.232291124848E+03   -0.42267E-05   -0.12041E-03 36856   0.142E-01    0.451E-02
DAV:   7    -0.232291138645E+03   -0.13798E-04   -0.16402E-04 35824   0.720E-02    0.274E-02
DAV:   8    -0.232291141211E+03   -0.25658E-05   -0.59579E-05 37440   0.405E-02    0.857E-03
DAV:   9    -0.232291143190E+03   -0.19791E-05   -0.16471E-05 33960   0.192E-02    0.555E-03
DAV:  10    -0.232291143127E+03    0.63553E-07   -0.20856E-06 18144   0.878E-03
   8 F= -.23229114E+03 E0= -.23229114E+03  d E =-.991395E-01  mag=    -0.0000
       N       E                     dE             d eps       ncg     rms          rms(c)
DAV:   1    -0.232287652596E+03    0.34906E-02   -0.11224E+00 26112   0.504E+00    0.241E-01
DAV:   2    -0.232294057767E+03   -0.64052E-02   -0.86163E-02 29128   0.128E+00    0.132E-01
DAV:   3    -0.232293905236E+03    0.15253E-03   -0.39351E-03 36608   0.284E-01    0.677E-02
DAV:   4    -0.232293819864E+03    0.85372E-04   -0.54354E-04 37544   0.117E-01    0.281E-02
DAV:   5    -0.232293809651E+03    0.10213E-04   -0.11863E-04 35144   0.567E-02    0.167E-02
DAV:   6    -0.232293808607E+03    0.10448E-05   -0.44376E-05 36616   0.277E-02    0.857E-03
DAV:   7    -0.232293808561E+03    0.45494E-07   -0.63329E-06 28168   0.141E-02
   9 F= -.23229381E+03 E0= -.23229381E+03  d E =-.101805E+00  mag=    -0.0000
       N       E                     dE             d eps       ncg     rms          rms(c)
DAV:   1    -0.232267869614E+03    0.25939E-01   -0.24990E+01 25680   0.214E+01    0.106E+00
DAV:   2    -0.232345160702E+03   -0.77291E-01   -0.11539E+00 31960   0.534E+00    0.605E-01
DAV:   3    -0.232336063495E+03    0.90972E-02   -0.44643E-02 37624   0.117E+00    0.322E-01
DAV:   4    -0.232332596044E+03    0.34675E-02   -0.19646E-02 30944   0.607E-01    0.114E-01
DAV:   5    -0.232332744155E+03   -0.14811E-03   -0.46286E-03 34352   0.319E-01    0.896E-02
DAV:   6    -0.232332667809E+03    0.76345E-04   -0.10469E-03 32272   0.132E-01    0.419E-02
DAV:   7    -0.232332651387E+03    0.16422E-04   -0.16274E-04 33016   0.662E-02    0.192E-02
DAV:   8    -0.232332648936E+03    0.24511E-05   -0.44680E-05 37592   0.356E-02    0.936E-03
DAV:   9    -0.232332648962E+03   -0.25875E-07   -0.14598E-05 33272   0.186E-02    0.401E-03
DAV:  10    -0.232332649176E+03   -0.21448E-06   -0.34944E-06 23456   0.948E-03
  10 F= -.23233265E+03 E0= -.23233265E+03  d E =-.388406E-01  mag=     0.0000
       N       E                     dE             d eps       ncg     rms          rms(c)
DAV:   1    -0.232332873987E+03   -0.22502E-03   -0.12355E+00 25616   0.477E+00    0.229E-01
DAV:   2    -0.232336763443E+03   -0.38895E-02   -0.56670E-02 32208   0.119E+00    0.136E-01
DAV:   3    -0.232336298762E+03    0.46468E-03   -0.22997E-03 36680   0.257E-01    0.698E-02
DAV:   4    -0.232336137924E+03    0.16084E-03   -0.86713E-04 34640   0.128E-01    0.261E-02
DAV:   5    -0.232336135649E+03    0.22751E-05   -0.17224E-04 32632   0.598E-02    0.178E-02
DAV:   6    -0.232336132514E+03    0.31344E-05   -0.46732E-05 35184   0.282E-02    0.873E-03
DAV:   7    -0.232336130690E+03    0.18247E-05   -0.69427E-06 30568   0.138E-02    0.428E-03
DAV:   8    -0.232336130220E+03    0.46928E-06   -0.22072E-06 20616   0.758E-03
  11 F= -.23233613E+03 E0= -.23233613E+03  d E =-.423217E-01  mag=    -0.0000
       N       E                     dE             d eps       ncg     rms          rms(c)
DAV:   1    -0.232298867400E+03    0.37263E-01   -0.96596E+00 26112   0.157E+01    0.949E-01
DAV:   2    -0.232370320768E+03   -0.71453E-01   -0.10572E+00 28672   0.415E+00    0.473E-01
DAV:   3    -0.232369311176E+03    0.10096E-02   -0.51261E-02 35368   0.952E-01    0.250E-01
DAV:   4    -0.232368271360E+03    0.10398E-02   -0.63184E-03 39160   0.417E-01    0.107E-01
DAV:   5    -0.232368181660E+03    0.89700E-04   -0.13105E-03 29544   0.160E-01    0.523E-02
DAV:   6    -0.232368191129E+03   -0.94694E-05   -0.51188E-04 36816   0.101E-01    0.270E-02
DAV:   7    -0.232368195344E+03   -0.42144E-05   -0.98448E-05 31552   0.459E-02    0.180E-02
DAV:   8    -0.232368196680E+03   -0.13369E-05   -0.29362E-05 34752   0.229E-02    0.597E-03
DAV:   9    -0.232368197187E+03   -0.50666E-06   -0.43040E-06 24864   0.111E-02
  12 F= -.23236820E+03 E0= -.23236820E+03  d E =-.320670E-01  mag=    -0.0000
       N       E                     dE             d eps       ncg     rms          rms(c)
DAV:   1    -0.232361271905E+03    0.69248E-02   -0.13147E+00 26144   0.581E+00    0.351E-01
DAV:   2    -0.232370996091E+03   -0.97242E-02   -0.14426E-01 28696   0.154E+00    0.173E-01
DAV:   3    -0.232370878918E+03    0.11717E-03   -0.70790E-03 35504   0.352E-01    0.921E-02
DAV:   4    -0.232370736157E+03    0.14276E-03   -0.81892E-04 39160   0.152E-01    0.396E-02
DAV:   5    -0.232370726315E+03    0.98416E-05   -0.18887E-04 29456   0.596E-02    0.190E-02
DAV:   6    -0.232370727791E+03   -0.14764E-05   -0.62428E-05 36984   0.366E-02    0.979E-03
DAV:   7    -0.232370729018E+03   -0.12263E-05   -0.14049E-05 31664   0.169E-02    0.671E-03
DAV:   8    -0.232370729315E+03   -0.29734E-06   -0.29324E-06 20376   0.820E-03
  13 F= -.23237073E+03 E0= -.23237073E+03  d E =-.345991E-01  mag=    -0.0000
       N       E                     dE             d eps       ncg     rms          rms(c)
DAV:   1    -0.232346034825E+03    0.24694E-01   -0.81986E+00 26368   0.139E+01    0.670E-01
DAV:   2    -0.232398749119E+03   -0.52714E-01   -0.68416E-01 27168   0.352E+00    0.351E-01
DAV:   3    -0.232398255277E+03    0.49384E-03   -0.29943E-02 37624   0.775E-01    0.218E-01
DAV:   4    -0.232397181630E+03    0.10736E-02   -0.50675E-03 33208   0.334E-01    0.754E-02
DAV:   5    -0.232397171654E+03    0.99754E-05   -0.13120E-03 32256   0.169E-01    0.543E-02
DAV:   6    -0.232397142444E+03    0.29210E-04   -0.48501E-04 33648   0.898E-02    0.259E-02
DAV:   7    -0.232397148221E+03   -0.57768E-05   -0.12023E-04 34584   0.533E-02    0.188E-02
DAV:   8    -0.232397144810E+03    0.34115E-05   -0.19106E-05 34376   0.205E-02    0.747E-03
DAV:   9    -0.232397145430E+03   -0.62062E-06   -0.11996E-05 35216   0.143E-02    0.358E-03
DAV:  10    -0.232397145373E+03    0.57307E-07   -0.99718E-07 15280   0.620E-03
  14 F= -.23239715E+03 E0= -.23239715E+03  d E =-.264161E-01  mag=     0.0000
       N       E                     dE             d eps       ncg     rms          rms(c)
DAV:   1    -0.232375980017E+03    0.21165E-01   -0.42898E+00 26336   0.101E+01    0.484E-01
DAV:   2    -0.232403604421E+03   -0.27624E-01   -0.35852E-01 27328   0.254E+00    0.254E-01
DAV:   3    -0.232403351358E+03    0.25306E-03   -0.15811E-02 37792   0.560E-01    0.159E-01
DAV:   4    -0.232402779601E+03    0.57176E-03   -0.26044E-03 33152   0.240E-01    0.557E-02
DAV:   5    -0.232402770214E+03    0.93869E-05   -0.69635E-04 32208   0.123E-01    0.393E-02
DAV:   6    -0.232402754378E+03    0.15836E-04   -0.25278E-04 33504   0.654E-02    0.188E-02
DAV:   7    -0.232402757562E+03   -0.31841E-05   -0.66952E-05 34720   0.392E-02    0.140E-02
DAV:   8    -0.232402755425E+03    0.21378E-05   -0.10116E-05 31080   0.151E-02    0.571E-03
DAV:   9    -0.232402755748E+03   -0.32322E-06   -0.77965E-06 30808   0.115E-02
  15 F= -.23240276E+03 E0= -.23240276E+03  d E =-.320264E-01  mag=    -0.0000
       N       E                     dE             d eps       ncg     rms          rms(c)
DAV:   1    -0.232369899655E+03    0.32856E-01   -0.78760E+00 26112   0.135E+01    0.634E-01
DAV:   2    -0.232421571794E+03   -0.51672E-01   -0.65156E-01 27424   0.334E+00    0.324E-01
DAV:   3    -0.232420958546E+03    0.61325E-03   -0.24188E-02 38512   0.757E-01    0.205E-01
DAV:   4    -0.232419940708E+03    0.10178E-02   -0.53360E-03 36368   0.344E-01    0.765E-02
DAV:   5    -0.232419949895E+03   -0.91868E-05   -0.14664E-03 33112   0.172E-01    0.573E-02
DAV:   6    -0.232419915449E+03    0.34446E-04   -0.41868E-04 34064   0.840E-02    0.264E-02
DAV:   7    -0.232419917358E+03   -0.19085E-05   -0.93782E-05 34848   0.460E-02    0.152E-02
DAV:   8    -0.232419916189E+03    0.11688E-05   -0.12889E-05 32152   0.191E-02    0.600E-03
DAV:   9    -0.232419917062E+03   -0.87333E-06   -0.12292E-05 32048   0.142E-02    0.410E-03
DAV:  10    -0.232419916763E+03    0.29972E-06   -0.22391E-06 18808   0.824E-03
  16 F= -.23241992E+03 E0= -.23241992E+03  d E =-.171610E-01  mag=    -0.0000
       N       E                     dE             d eps       ncg     rms          rms(c)
DAV:   1    -0.232417663811E+03    0.22533E-02   -0.46337E-01 26144   0.327E+00    0.153E-01
DAV:   2    -0.232420691288E+03   -0.30275E-02   -0.38231E-02 28000   0.809E-01    0.785E-02
DAV:   3    -0.232420656027E+03    0.35262E-04   -0.14349E-03 38512   0.183E-01    0.496E-02
DAV:   4    -0.232420597262E+03    0.58765E-04   -0.30990E-04 36232   0.827E-02    0.186E-02
DAV:   5    -0.232420596682E+03    0.57929E-06   -0.81298E-05 33400   0.409E-02    0.135E-02
DAV:   6    -0.232420595071E+03    0.16114E-05   -0.25783E-05 33968   0.204E-02    0.614E-03
DAV:   7    -0.232420595112E+03   -0.40988E-07   -0.44415E-06 25568   0.110E-02
  17 F= -.23242060E+03 E0= -.23242060E+03  d E =-.178394E-01  mag=     0.0000
       N       E                     dE             d eps       ncg     rms          rms(c)
DAV:   1    -0.232393216773E+03    0.27378E-01   -0.51056E+00 26112   0.112E+01    0.546E-01
DAV:   2    -0.232430352559E+03   -0.37136E-01   -0.48519E-01 27000   0.284E+00    0.268E-01
DAV:   3    -0.232430733765E+03   -0.38121E-03   -0.23831E-02 37504   0.645E-01    0.163E-01
DAV:   4    -0.232430209497E+03    0.52427E-03   -0.24481E-03 37944   0.243E-01    0.699E-02
DAV:   5    -0.232430155118E+03    0.54379E-04   -0.70281E-04 30040   0.117E-01    0.333E-02
DAV:   6    -0.232430156371E+03   -0.12536E-05   -0.23320E-04 33528   0.668E-02    0.185E-02
DAV:   7    -0.232430159013E+03   -0.26416E-05   -0.44121E-05 31560   0.300E-02    0.125E-02
DAV:   8    -0.232430158837E+03    0.17629E-06   -0.12361E-05 32016   0.156E-02    0.363E-03
DAV:   9    -0.232430159044E+03   -0.20759E-06   -0.21634E-06 18184   0.801E-03
  18 F= -.23243016E+03 E0= -.23243016E+03  d E =-.956393E-02  mag=    -0.0000
       N       E                     dE             d eps       ncg     rms          rms(c)
DAV:   1    -0.232430000203E+03    0.15863E-03   -0.28700E-02 26504   0.842E-01    0.409E-02
DAV:   2    -0.232430208985E+03   -0.20878E-03   -0.27273E-03 27624   0.214E-01    0.201E-02
DAV:   3    -0.232430211514E+03   -0.25287E-05   -0.13592E-04 37288   0.486E-02    0.123E-02
DAV:   4    -0.232430208585E+03    0.29291E-05   -0.13183E-05 35728   0.181E-02    0.534E-03
DAV:   5    -0.232430208492E+03    0.92526E-07   -0.42315E-06 25760   0.934E-03
  19 F= -.23243021E+03 E0= -.23243021E+03  d E =-.961338E-02  mag=    -0.0000
       N       E                     dE             d eps       ncg     rms          rms(c)
DAV:   1    -0.232431146352E+03   -0.93777E-03   -0.13074E+00 25136   0.476E+00    0.287E-01
DAV:   2    -0.232434552733E+03   -0.34064E-02   -0.58638E-02 31976   0.119E+00    0.185E-01
DAV:   3    -0.232433720491E+03    0.83224E-03   -0.28745E-03 37696   0.278E-01    0.895E-02
DAV:   4    -0.232433503246E+03    0.21725E-03   -0.93783E-04 35304   0.135E-01    0.296E-02
DAV:   5    -0.232433499695E+03    0.35501E-05   -0.18004E-04 32776   0.580E-02    0.164E-02
DAV:   6    -0.232433499598E+03    0.97907E-07   -0.33836E-05 35360   0.273E-02    0.930E-03
DAV:   7    -0.232433499034E+03    0.56312E-06   -0.21168E-06 19504   0.100E-02
  20 F= -.23243350E+03 E0= -.23243350E+03  d E =-.329054E-02  mag=     0.0000
       N       E                     dE             d eps       ncg     rms          rms(c)
DAV:   1    -0.232433501294E+03   -0.16965E-05   -0.37073E-03 26048   0.253E-01    0.154E-02
DAV:   2    -0.232433511014E+03   -0.97200E-05   -0.16447E-04 32032   0.623E-02    0.100E-02
DAV:   3    -0.232433508595E+03    0.24187E-05   -0.83335E-06 31680   0.151E-02    0.468E-03
DAV:   4    -0.232433508083E+03    0.51215E-06   -0.24112E-06 21008   0.777E-03
  21 F= -.23243351E+03 E0= -.23243351E+03  d E =-.329959E-02  mag=     0.0000
       N       E                     dE             d eps       ncg     rms          rms(c)
DAV:   1    -0.232432503055E+03    0.10055E-02   -0.41113E-01 25440   0.292E+00    0.136E-01
DAV:   2    -0.232434719721E+03   -0.22167E-02   -0.28318E-02 29120   0.741E-01    0.806E-02
DAV:   3    -0.232434660789E+03    0.58932E-04   -0.12419E-03 35192   0.166E-01    0.514E-02
DAV:   4    -0.232434603494E+03    0.57295E-04   -0.33839E-04 35392   0.868E-02    0.194E-02
DAV:   5    -0.232434599889E+03    0.36044E-05   -0.82771E-05 30896   0.432E-02    0.144E-02
DAV:   6    -0.232434597882E+03    0.20073E-05   -0.32998E-05 36144   0.231E-02    0.602E-03
DAV:   7    -0.232434597940E+03   -0.58491E-07   -0.51301E-06 23752   0.109E-02
  22 F= -.23243460E+03 E0= -.23243460E+03  d E =-.108986E-02  mag=    -0.0000
       N       E                     dE             d eps       ncg     rms          rms(c)
DAV:   1    -0.232434586321E+03    0.11560E-04   -0.66610E-03 25544   0.372E-01    0.174E-02
DAV:   2    -0.232434622675E+03   -0.36353E-04   -0.45848E-04 30368   0.941E-02    0.103E-02
DAV:   3    -0.232434621966E+03    0.70901E-06   -0.20052E-05 34072   0.208E-02    0.657E-03
DAV:   4    -0.232434621331E+03    0.63463E-06   -0.52756E-06 28496   0.112E-02
  23 F= -.23243462E+03 E0= -.23243462E+03  d E =-.111325E-02  mag=    -0.0000
       N       E                     dE             d eps       ncg     rms          rms(c)
DAV:   1    -0.232434653122E+03   -0.31156E-04   -0.89000E-02 25600   0.134E+00    0.712E-02
DAV:   2    -0.232435071749E+03   -0.41863E-03   -0.57127E-03 29088   0.339E-01    0.417E-02
DAV:   3    -0.232435044477E+03    0.27272E-04   -0.27057E-04 35432   0.779E-02    0.230E-02
DAV:   4    -0.232435032602E+03    0.11875E-04   -0.65061E-05 37504   0.396E-02    0.821E-03
DAV:   5    -0.232435032457E+03    0.14459E-06   -0.12851E-05 30400   0.167E-02    0.471E-03
DAV:   6    -0.232435032610E+03   -0.15224E-06   -0.39695E-06 23960   0.929E-03
  24 F= -.23243503E+03 E0= -.23243503E+03  d E =-.411279E-03  mag=    -0.0000
       N       E                     dE             d eps       ncg     rms          rms(c)
DAV:   1    -0.232435031270E+03    0.11879E-05   -0.22880E-03 25744   0.216E-01    0.118E-02
DAV:   2    -0.232435042398E+03   -0.11129E-04   -0.14708E-04 29352   0.543E-02    0.678E-03
DAV:   3    -0.232435041841E+03    0.55706E-06   -0.66113E-06 29176   0.125E-02
  25 F= -.23243504E+03 E0= -.23243504E+03  d E =-.420510E-03  mag=    -0.0000
       N       E                     dE             d eps       ncg     rms          rms(c)
DAV:   1    -0.232435177555E+03   -0.13516E-03   -0.42148E-02 25040   0.843E-01    0.466E-02
DAV:   2    -0.232435290700E+03   -0.11315E-03   -0.17349E-03 32520   0.213E-01    0.281E-02
DAV:   3    -0.232435273290E+03    0.17410E-04   -0.85380E-05 36320   0.467E-02    0.137E-02
DAV:   4    -0.232435269786E+03    0.35043E-05   -0.31194E-05 33824   0.226E-02    0.531E-03
DAV:   5    -0.232435269786E+03    0.33924E-09   -0.42327E-06 23232   0.106E-02
  26 F= -.23243527E+03 E0= -.23243527E+03  d E =-.227945E-03  mag=    -0.0000
       N       E                     dE             d eps       ncg     rms          rms(c)
DAV:   1    -0.232435277205E+03   -0.74189E-05   -0.54965E-03 25072   0.304E-01    0.171E-02
DAV:   2    -0.232435292857E+03   -0.15652E-04   -0.23044E-04 32608   0.772E-02    0.104E-02
DAV:   3    -0.232435290634E+03    0.22238E-05   -0.11263E-05 32664   0.174E-02    0.506E-03
DAV:   4    -0.232435290398E+03    0.23560E-06   -0.45732E-06 27376   0.920E-03
  27 F= -.23243529E+03 E0= -.23243529E+03  d E =-.248557E-03  mag=     0.0000
       N       E                     dE             d eps       ncg     rms          rms(c)
DAV:   1    -0.232435256963E+03    0.33670E-04   -0.39344E-02 26032   0.878E-01    0.368E-02
DAV:   2    -0.232435446641E+03   -0.18968E-03   -0.23466E-03 29320   0.220E-01    0.233E-02
DAV:   3    -0.232435440601E+03    0.60402E-05   -0.10724E-04 37960   0.504E-02    0.143E-02
DAV:   4    -0.232435435390E+03    0.52108E-05   -0.28101E-05 36088   0.230E-02    0.543E-03
DAV:   5    -0.232435434495E+03    0.89468E-06   -0.45018E-06 23800   0.110E-02
  28 F= -.23243543E+03 E0= -.23243543E+03  d E =-.144097E-03  mag=     0.0000
       N       E                     dE             d eps       ncg     rms          rms(c)
DAV:   1    -0.232435433614E+03    0.17755E-05   -0.42149E-04 26976   0.916E-02    0.439E-03
DAV:   2    -0.232435435847E+03   -0.22329E-05   -0.28812E-05 31216   0.235E-02    0.307E-03
DAV:   3    -0.232435435637E+03    0.20999E-06   -0.94522E-07 20904   0.574E-03
  29 F= -.23243544E+03 E0= -.23243544E+03  d E =-.145239E-03  mag=     0.0000
       N       E                     dE             d eps       ncg     rms          rms(c)
DAV:   1    -0.232435432267E+03    0.35798E-05   -0.97585E-03 26144   0.456E-01    0.188E-02
DAV:   2    -0.232435486904E+03   -0.54637E-04   -0.66653E-04 27424   0.112E-01    0.105E-02
DAV:   3    -0.232435486301E+03    0.60371E-06   -0.28059E-05 37312   0.249E-02    0.668E-03
DAV:   4    -0.232435484992E+03    0.13085E-05   -0.56224E-06 28160   0.116E-02    0.207E-03
DAV:   5    -0.232435485060E+03   -0.67555E-07   -0.16412E-06 18240   0.677E-03
  30 F= -.23243549E+03 E0= -.23243549E+03  d E =-.494223E-04  mag=     0.0000
       N       E                     dE             d eps       ncg     rms          rms(c)
DAV:   1    -0.232435483786E+03    0.12058E-05   -0.65580E-04 26200   0.118E-01    0.512E-03
DAV:   2    -0.232435487629E+03   -0.38425E-05   -0.45959E-05 28048   0.291E-02    0.272E-03
DAV:   3    -0.232435487585E+03    0.44231E-07   -0.16399E-06 22720   0.663E-03
  31 F= -.23243549E+03 E0= -.23243549E+03  d E =-.519473E-04  mag=     0.0000
       N       E                     dE             d eps       ncg     rms          rms(c)
DAV:   1    -0.232435500904E+03   -0.13275E-04   -0.61455E-03 25056   0.330E-01    0.188E-02
DAV:   2    -0.232435517617E+03   -0.16713E-04   -0.27519E-04 32216   0.820E-02    0.105E-02
DAV:   3    -0.232435515932E+03    0.16850E-05   -0.14060E-05 34272   0.185E-02    0.443E-03
DAV:   4    -0.232435515736E+03    0.19575E-06   -0.16709E-06 20960   0.830E-03
  32 F= -.23243552E+03 E0= -.23243552E+03  d E =-.281514E-04  mag=    -0.0000
