       N       E                     dE             d eps       ncg     rms          rms(c)
DAV:   1     0.900178721348E+03    0.90018E+03   -0.64181E+04 27000   0.131E+03
DAV:   2    -0.184576781548E+03   -0.10848E+04   -0.10403E+04 30800   0.307E+02
DAV:   3    -0.276386021936E+03   -0.91809E+02   -0.90280E+02 32048   0.101E+02
DAV:   4    -0.280120266752E+03   -0.37342E+01   -0.37155E+01 36896   0.273E+01
DAV:   5    -0.280189262742E+03   -0.68996E-01   -0.68883E-01 33224   0.317E+00    0.587E+01
DAV:   6    -0.240709616048E+03    0.39480E+02   -0.31732E+02 38856   0.717E+01    0.547E+01
DAV:   7    -0.240328123496E+03    0.38149E+00   -0.22346E+02 38448   0.140E+02    0.236E+01
DAV:   8    -0.234586139148E+03    0.57420E+01   -0.29651E+01 34056   0.198E+01    0.152E+01
DAV:   9    -0.230243911851E+03    0.43422E+01   -0.58748E+00 37832   0.169E+01    0.472E+00
DAV:  10    -0.230133980004E+03    0.10993E+00   -0.22735E+00 37608   0.685E+00    0.375E+00
DAV:  11    -0.230084276409E+03    0.49704E-01   -0.65390E-01 38088   0.491E+00    0.344E+00
DAV:  12    -0.229999207711E+03    0.85069E-01   -0.51091E-01 37280   0.398E+00    0.143E+00
DAV:  13    -0.229972750004E+03    0.26458E-01   -0.11173E-01 37184   0.193E+00    0.399E-01
DAV:  14    -0.229972883890E+03   -0.13389E-03   -0.21410E-02 30600   0.558E-01    0.344E-01
DAV:  15    -0.229972217731E+03    0.66616E-03   -0.11446E-02 38080   0.501E-01    0.135E-01
DAV:  16    -0.229972348574E+03   -0.13084E-03   -0.23273E-03 36072   0.197E-01    0.156E-01
DAV:  17    -0.229972163609E+03    0.18497E-03   -0.78115E-04 37632   0.133E-01    0.893E-02
DAV:  18    -0.229972103309E+03    0.60300E-04   -0.41287E-04 37496   0.765E-02    0.421E-02
DAV:  19    -0.229972098477E+03    0.48324E-05   -0.14570E-04 39032   0.586E-02    0.168E-02
DAV:  20    -0.229972097676E+03    0.80071E-06   -0.14669E-05 36152   0.181E-02    0.128E-02
DAV:  21    -0.229972096408E+03    0.12683E-05   -0.10253E-05 32680   0.141E-02    0.252E-03
DAV:  22    -0.229972096633E+03   -0.22538E-06   -0.84855E-07 17104   0.433E-03
   1 F= -.22997210E+03 E0= -.22997210E+03  d E =-.229972E+03  mag=     0.0000
       N       E                     dE             d eps       ncg     rms          rms(c)
DAV:   1    -0.229820189446E+03    0.15191E+00   -0.23490E+02 27200   0.680E+01    0.464E+00
DAV:   2    -0.231044182988E+03   -0.12240E+01   -0.13327E+01 36504   0.221E+01    0.674E+00
DAV:   3    -0.230386029268E+03    0.65815E+00   -0.97954E-01 37960   0.837E+00    0.200E+00
DAV:   4    -0.230312040366E+03    0.73989E-01   -0.23466E-01 32448   0.183E+00    0.856E-01
DAV:   5    -0.230306925626E+03    0.51147E-02   -0.11490E-01 36592   0.168E+00    0.650E-01
DAV:   6    -0.230304090632E+03    0.28350E-02   -0.25250E-02 36456   0.109E+00    0.375E-01
DAV:   7    -0.230303138764E+03    0.95187E-03   -0.59821E-03 38872   0.447E-01    0.135E-01
DAV:   8    -0.230303280501E+03   -0.14174E-03   -0.17975E-03 34544   0.176E-01    0.747E-02
DAV:   9    -0.230303347170E+03   -0.66669E-04   -0.39094E-04 38032   0.927E-02    0.278E-02
DAV:  10    -0.230303344944E+03    0.22258E-05   -0.59329E-05 35192   0.487E-02    0.122E-02
DAV:  11    -0.230303346837E+03   -0.18929E-05   -0.27216E-05 34568   0.182E-02    0.576E-03
DAV:  12    -0.230303346850E+03   -0.12933E-07   -0.32508E-06 26968   0.822E-03
   2 F= -.23030335E+03 E0= -.23030335E+03  d E =-.331250E+00  mag=    -0.0000
       N       E                     dE             d eps       ncg     rms          rms(c)
DAV:   1    -0.230468558787E+03   -0.16521E+00   -0.32914E+01 27200   0.260E+01    0.203E+00
DAV:   2    -0.230688656921E+03   -0.22010E+00   -0.19265E+00 34144   0.917E+00    0.403E+00
DAV:   3    -0.230529284443E+03    0.15937E+00   -0.46985E-01 37824   0.512E+00    0.641E-01
DAV:   4    -0.230520929746E+03    0.83547E-02   -0.34320E-02 30160   0.719E-01    0.336E-01
DAV:   5    -0.230519660776E+03    0.12690E-02   -0.12050E-02 32960   0.474E-01    0.193E-01
DAV:   6    -0.230519766555E+03   -0.10578E-03   -0.30495E-03 37208   0.399E-01    0.158E-01
DAV:   7    -0.230519548018E+03    0.21854E-03   -0.57810E-04 37728   0.188E-01    0.452E-02
DAV:   8    -0.230519567609E+03   -0.19592E-04   -0.13965E-04 32136   0.459E-02    0.274E-02
DAV:   9    -0.230519574095E+03   -0.64857E-05   -0.21847E-05 31856   0.231E-02    0.105E-02
DAV:  10    -0.230519576392E+03   -0.22970E-05   -0.13476E-05 30168   0.131E-02    0.440E-03
DAV:  11    -0.230519576270E+03    0.12175E-06   -0.14312E-06 18000   0.632E-03
   3 F= -.23051958E+03 E0= -.23051958E+03  d E =-.547480E+00  mag=     0.0000
       N       E                     dE             d eps       ncg     rms          rms(c)
DAV:   1    -0.230354756013E+03    0.16482E+00   -0.40088E+01 27200   0.365E+01    0.171E+00
DAV:   2    -0.230615217830E+03   -0.26046E+00   -0.31617E+00 28944   0.697E+00    0.145E+00
DAV:   3    -0.230595480535E+03    0.19737E-01   -0.10774E-01 37328   0.270E+00    0.105E+00
DAV:   4    -0.230580071124E+03    0.15409E-01   -0.40339E-02 37888   0.134E+00    0.350E-01
DAV:   5    -0.230578648675E+03    0.14224E-02   -0.12000E-02 31248   0.462E-01    0.146E-01
DAV:   6    -0.230578866837E+03   -0.21816E-03   -0.25182E-03 37824   0.343E-01    0.163E-01
DAV:   7    -0.230578621054E+03    0.24578E-03   -0.79490E-04 38592   0.213E-01    0.500E-02
DAV:   8    -0.230578618298E+03    0.27556E-05   -0.76630E-05 35072   0.490E-02    0.263E-02
DAV:   9    -0.230578624792E+03   -0.64943E-05   -0.42983E-05 31904   0.262E-02    0.897E-03
DAV:  10    -0.230578624284E+03    0.50843E-06   -0.62799E-06 31504   0.128E-02
   4 F= -.23057862E+03 E0= -.23057862E+03  d E =-.590480E-01  mag=    -0.0000
       N       E                     dE             d eps       ncg     rms          rms(c)
DAV:   1    -0.230573635456E+03    0.49893E-02   -0.41832E+00 27200   0.119E+01    0.576E-01
DAV:   2    -0.230600853434E+03   -0.27218E-01   -0.32469E-01 29216   0.225E+00    0.544E-01
DAV:   3    -0.230598016580E+03    0.28369E-02   -0.14701E-02 35680   0.102E+00    0.340E-01
DAV:   4    -0.230596325567E+03    0.16910E-02   -0.40167E-03 38048   0.405E-01    0.117E-01
DAV:   5    -0.230596152907E+03    0.17266E-03   -0.13940E-03 30904   0.141E-01    0.388E-02
DAV:   6    -0.230596162900E+03   -0.99935E-05   -0.19000E-04 37024   0.649E-02    0.262E-02
DAV:   7    -0.230596163868E+03   -0.96777E-06   -0.47509E-05 38464   0.458E-02    0.201E-02
DAV:   8    -0.230596161396E+03    0.24721E-05   -0.86892E-06 36192   0.241E-02    0.904E-03
DAV:   9    -0.230596162136E+03   -0.73971E-06   -0.41766E-06 29184   0.907E-03
   5 F= -.23059616E+03 E0= -.23059616E+03  d E =-.765859E-01  mag=    -0.0000
       N       E                     dE             d eps       ncg     rms          rms(c)
DAV:   1    -0.230566368642E+03    0.29793E-01   -0.10852E+01 27216   0.176E+01    0.623E-01
DAV:   2    -0.230618664358E+03   -0.52296E-01   -0.64578E-01 29824   0.315E+00    0.435E-01
DAV:   3    -0.230616074180E+03    0.25902E-02   -0.14020E-02 36208   0.589E-01    0.292E-01
DAV:   4    -0.230615439404E+03    0.63478E-03   -0.52223E-03 37872   0.571E-01    0.262E-01
DAV:   5    -0.230614717212E+03    0.72219E-03   -0.24551E-03 37840   0.330E-01    0.552E-02
DAV:   6    -0.230614720199E+03   -0.29865E-05   -0.27693E-04 31280   0.790E-02    0.335E-02
DAV:   7    -0.230614737961E+03   -0.17762E-04   -0.14485E-04 37680   0.582E-02    0.316E-02
DAV:   8    -0.230614732546E+03    0.54154E-05   -0.28852E-05 36960   0.400E-02    0.153E-02
DAV:   9    -0.230614733617E+03   -0.10705E-05   -0.16036E-05 37360   0.187E-02    0.643E-03
DAV:  10    -0.230614733674E+03   -0.57317E-07   -0.40321E-06 26928   0.960E-03
   6 F= -.23061473E+03 E0= -.23061473E+03  d E =-.185715E-01  mag=    -0.0000
       N       E                     dE             d eps       ncg     rms          rms(c)
DAV:   1    -0.230614022442E+03    0.71117E-03   -0.66987E-01 27232   0.437E+00    0.157E-01
DAV:   2    -0.230617205843E+03   -0.31834E-02   -0.39485E-02 29856   0.758E-01    0.100E-01
DAV:   3    -0.230617030768E+03    0.17507E-03   -0.92263E-04 35600   0.147E-01    0.608E-02
DAV:   4    -0.230617026428E+03    0.43403E-05   -0.38793E-04 37376   0.128E-01    0.622E-02
DAV:   5    -0.230616979098E+03    0.47330E-04   -0.13416E-04 37600   0.844E-02    0.144E-02
DAV:   6    -0.230616979267E+03   -0.16882E-06   -0.15220E-05 35488   0.225E-02    0.866E-03
DAV:   7    -0.230616980220E+03   -0.95308E-06   -0.81751E-06 35360   0.145E-02
   7 F= -.23061698E+03 E0= -.23061698E+03  d E =-.208181E-01  mag=     0.0000
       N       E                     dE             d eps       ncg     rms          rms(c)
DAV:   1    -0.230607459331E+03    0.95199E-02   -0.55610E+00 27200   0.117E+01    0.508E-01
DAV:   2    -0.230630970942E+03   -0.23512E-01   -0.27240E-01 30272   0.243E+00    0.620E-01
DAV:   3    -0.230627398651E+03    0.35723E-02   -0.15515E-02 36480   0.967E-01    0.277E-01
DAV:   4    -0.230625863577E+03    0.15351E-02   -0.30996E-03 37776   0.320E-01    0.128E-01
DAV:   5    -0.230625642228E+03    0.22135E-03   -0.21341E-03 33904   0.202E-01    0.753E-02
DAV:   6    -0.230625629318E+03    0.12910E-04   -0.50400E-04 37648   0.152E-01    0.512E-02
DAV:   7    -0.230625602658E+03    0.26660E-04   -0.91653E-05 38944   0.598E-02    0.200E-02
DAV:   8    -0.230625603742E+03   -0.10839E-05   -0.17286E-05 30944   0.167E-02    0.107E-02
DAV:   9    -0.230625604677E+03   -0.93489E-06   -0.52103E-06 30800   0.961E-03
   8 F= -.23062560E+03 E0= -.23062560E+03  d E =-.862446E-02  mag=    -0.0000
       N       E                     dE             d eps       ncg     rms          rms(c)
DAV:   1    -0.230625660893E+03   -0.57151E-04   -0.40352E-01 27232   0.316E+00    0.138E-01
DAV:   2    -0.230627381095E+03   -0.17202E-02   -0.19869E-02 30272   0.659E-01    0.169E-01
DAV:   3    -0.230627115930E+03    0.26517E-03   -0.11206E-03 36528   0.263E-01    0.747E-02
DAV:   4    -0.230627001986E+03    0.11394E-03   -0.22348E-04 37728   0.859E-02    0.333E-02
DAV:   5    -0.230626985134E+03    0.16852E-04   -0.15106E-04 32048   0.478E-02    0.126E-02
DAV:   6    -0.230626986271E+03   -0.11375E-05   -0.27654E-05 37504   0.295E-02    0.126E-02
DAV:   7    -0.230626985088E+03    0.11833E-05   -0.56647E-06 33568   0.159E-02    0.538E-03
DAV:   8    -0.230626985064E+03    0.23369E-07   -0.68412E-07 16288   0.441E-03
   9 F= -.23062699E+03 E0= -.23062699E+03  d E =-.100048E-01  mag=     0.0000
       N       E                     dE             d eps       ncg     rms          rms(c)
DAV:   1    -0.230628351471E+03   -0.13664E-02   -0.10684E+00 27200   0.523E+00    0.187E-01
DAV:   2    -0.230632780985E+03   -0.44295E-02   -0.51018E-02 29936   0.916E-01    0.181E-01
DAV:   3    -0.230632507713E+03    0.27327E-03   -0.19743E-03 35584   0.317E-01    0.109E-01
DAV:   4    -0.230632293868E+03    0.21384E-03   -0.50265E-04 38496   0.141E-01    0.441E-02
DAV:   5    -0.230632269324E+03    0.24544E-04   -0.22595E-04 32432   0.607E-02    0.162E-02
DAV:   6    -0.230632272350E+03   -0.30260E-05   -0.32559E-05 35520   0.265E-02    0.129E-02
DAV:   7    -0.230632272633E+03   -0.28237E-06   -0.98477E-06 36056   0.199E-02
  10 F= -.23063227E+03 E0= -.23063227E+03  d E =-.528757E-02  mag=    -0.0000
       N       E                     dE             d eps       ncg     rms          rms(c)
DAV:   1    -0.230632224453E+03    0.47897E-04   -0.99126E-02 27232   0.159E+00    0.582E-02
DAV:   2    -0.230632640264E+03   -0.41581E-03   -0.47380E-03 29936   0.277E-01    0.547E-02
DAV:   3    -0.230632616418E+03    0.23846E-04   -0.18217E-04 35408   0.967E-02    0.339E-02
DAV:   4    -0.230632597169E+03    0.19248E-04   -0.48268E-05 38496   0.440E-02    0.137E-02
DAV:   5    -0.230632595243E+03    0.19260E-05   -0.20321E-05 32560   0.185E-02    0.528E-03
DAV:   6    -0.230632595525E+03   -0.28170E-06   -0.26942E-06 22984   0.855E-03
  11 F= -.23063260E+03 E0= -.23063260E+03  d E =-.561046E-02  mag=     0.0000
       N       E                     dE             d eps       ncg     rms          rms(c)
DAV:   1    -0.230633035436E+03   -0.44019E-03   -0.38562E-01 27232   0.323E+00    0.130E-01
DAV:   2    -0.230634763219E+03   -0.17278E-02   -0.20276E-02 29840   0.613E-01    0.137E-01
DAV:   3    -0.230634580814E+03    0.18241E-03   -0.86128E-04 35088   0.220E-01    0.693E-02
DAV:   4    -0.230634481466E+03    0.99348E-04   -0.22857E-04 38464   0.893E-02    0.288E-02
DAV:   5    -0.230634473288E+03    0.81777E-05   -0.11490E-04 31536   0.409E-02    0.117E-02
DAV:   6    -0.230634474741E+03   -0.14532E-05   -0.19476E-05 37448   0.258E-02    0.125E-02
DAV:   7    -0.230634473517E+03    0.12239E-05   -0.41962E-06 29424   0.153E-02    0.471E-03
DAV:   8    -0.230634473504E+03    0.13483E-07   -0.71088E-07 16272   0.493E-03
  12 F= -.23063447E+03 E0= -.23063447E+03  d E =-.187798E-02  mag=    -0.0000
       N       E                     dE             d eps       ncg     rms          rms(c)
DAV:   1    -0.230634456591E+03    0.16927E-04   -0.35009E-02 27232   0.973E-01    0.391E-02
DAV:   2    -0.230634613089E+03   -0.15650E-03   -0.18433E-03 29888   0.186E-01    0.413E-02
DAV:   3    -0.230634596807E+03    0.16283E-04   -0.78715E-05 35224   0.663E-02    0.208E-02
DAV:   4    -0.230634587770E+03    0.90372E-05   -0.20481E-05 37888   0.267E-02    0.877E-03
DAV:   5    -0.230634587089E+03    0.68091E-06   -0.10651E-05 31408   0.124E-02    0.351E-03
DAV:   6    -0.230634587182E+03   -0.92981E-07   -0.14190E-06 19456   0.773E-03
  13 F= -.23063459E+03 E0= -.23063459E+03  d E =-.199166E-02  mag=     0.0000
       N       E                     dE             d eps       ncg     rms          rms(c)
DAV:   1    -0.230634246390E+03    0.34070E-03   -0.16402E-01 27232   0.243E+00    0.944E-02
DAV:   2    -0.230635390180E+03   -0.11438E-02   -0.12197E-02 29856   0.464E-01    0.114E-01
DAV:   3    -0.230635262850E+03    0.12733E-03   -0.42129E-04 36384   0.172E-01    0.470E-02
DAV:   4    -0.230635231301E+03    0.31549E-04   -0.96508E-05 37824   0.558E-02    0.203E-02
DAV:   5    -0.230635228510E+03    0.27905E-05   -0.38173E-05 31232   0.246E-02    0.717E-03
DAV:   6    -0.230635229166E+03   -0.65532E-06   -0.65319E-06 29336   0.111E-02
  14 F= -.23063523E+03 E0= -.23063523E+03  d E =-.641984E-03  mag=     0.0000
       N       E                     dE             d eps       ncg     rms          rms(c)
DAV:   1    -0.230635229417E+03   -0.90696E-06   -0.22193E-06 19712   0.100E-02    0.374E-03
DAV:   2    -0.230635229657E+03   -0.23952E-06   -0.17171E-06 21904   0.119E-02
  15 F= -.23063523E+03 E0= -.23063523E+03  d E =-.642475E-03  mag=     0.0000
       N       E                     dE             d eps       ncg     rms          rms(c)
DAV:   1    -0.230634866372E+03    0.36305E-03   -0.15951E-01 27232   0.206E+00    0.846E-02
DAV:   2    -0.230635699894E+03   -0.83352E-03   -0.96923E-03 29552   0.379E-01    0.732E-02
DAV:   3    -0.230635657097E+03    0.42796E-04   -0.26135E-04 37632   0.120E-01    0.520E-02
DAV:   4    -0.230635618959E+03    0.38138E-04   -0.80183E-05 37840   0.647E-02    0.217E-02
DAV:   5    -0.230635611884E+03    0.70751E-05   -0.51332E-05 32352   0.285E-02    0.679E-03
DAV:   6    -0.230635612305E+03   -0.42122E-06   -0.93516E-06 31136   0.135E-02
  16 F= -.23063561E+03 E0= -.23063561E+03  d E =-.382648E-03  mag=     0.0000
       N       E                     dE             d eps       ncg     rms          rms(c)
DAV:   1    -0.230635608940E+03    0.29435E-05   -0.28702E-03 27264   0.276E-01    0.110E-02
DAV:   2    -0.230635623520E+03   -0.14579E-04   -0.17353E-04 29456   0.511E-02    0.102E-02
DAV:   3    -0.230635622654E+03    0.86575E-06   -0.52858E-06 30240   0.173E-02
  17 F= -.23063562E+03 E0= -.23063562E+03  d E =-.392997E-03  mag=    -0.0000
       N       E                     dE             d eps       ncg     rms          rms(c)
DAV:   1    -0.230635612332E+03    0.11188E-04   -0.13083E-01 27232   0.177E+00    0.583E-02
DAV:   2    -0.230636076044E+03   -0.46371E-03   -0.53421E-03 29984   0.283E-01    0.364E-02
DAV:   3    -0.230636064349E+03    0.11694E-04   -0.12717E-04 37648   0.735E-02    0.317E-02
DAV:   4    -0.230636054171E+03    0.10178E-04   -0.41713E-05 38080   0.462E-02    0.182E-02
DAV:   5    -0.230636049733E+03    0.44387E-05   -0.23231E-05 38320   0.251E-02    0.563E-03
DAV:   6    -0.230636049689E+03    0.43662E-07   -0.42735E-06 24112   0.955E-03
  18 F= -.23063605E+03 E0= -.23063605E+03  d E =-.427035E-03  mag=     0.0000
       N       E                     dE             d eps       ncg     rms          rms(c)
DAV:   1    -0.230636037450E+03    0.12283E-04   -0.14558E-02 27232   0.590E-01    0.202E-02
DAV:   2    -0.230636090486E+03   -0.53036E-04   -0.59755E-04 29952   0.943E-02    0.123E-02
DAV:   3    -0.230636089134E+03    0.13520E-05   -0.13739E-05 36168   0.247E-02    0.111E-02
DAV:   4    -0.230636088091E+03    0.10428E-05   -0.47892E-06 30928   0.159E-02    0.619E-03
DAV:   5    -0.230636087650E+03    0.44118E-06   -0.26855E-06 22032   0.880E-03
  19 F= -.23063609E+03 E0= -.23063609E+03  d E =-.464996E-03  mag=     0.0000
       N       E                     dE             d eps       ncg     rms          rms(c)
DAV:   1    -0.230635896348E+03    0.19174E-03   -0.65724E-02 27216   0.151E+00    0.531E-02
DAV:   2    -0.230636324050E+03   -0.42770E-03   -0.48516E-03 29424   0.261E-01    0.369E-02
DAV:   3    -0.230636317718E+03    0.63315E-05   -0.11959E-04 38224   0.746E-02    0.315E-02
DAV:   4    -0.230636306474E+03    0.11244E-04   -0.38888E-05 38112   0.438E-02    0.147E-02
DAV:   5    -0.230636304015E+03    0.24590E-05   -0.14355E-05 37872   0.187E-02    0.467E-03
DAV:   6    -0.230636303838E+03    0.17650E-06   -0.17398E-06 20336   0.763E-03
  20 F= -.23063630E+03 E0= -.23063630E+03  d E =-.216189E-03  mag=    -0.0000
       N       E                     dE             d eps       ncg     rms          rms(c)
DAV:   1    -0.230636303721E+03    0.29426E-06   -0.10233E-04 29024   0.588E-02    0.352E-03
DAV:   2    -0.230636304496E+03   -0.77579E-06   -0.79312E-06 27008   0.128E-02
  21 F= -.23063630E+03 E0= -.23063630E+03  d E =-.216847E-03  mag=    -0.0000
       N       E                     dE             d eps       ncg     rms          rms(c)
DAV:   1    -0.230636368263E+03   -0.64542E-04   -0.16386E-02 27216   0.436E-01    0.283E-02
DAV:   2    -0.230636402497E+03   -0.34234E-04   -0.41240E-04 35984   0.110E-01    0.419E-02
DAV:   3    -0.230636382686E+03    0.19811E-04   -0.50089E-05 36600   0.541E-02    0.119E-02
DAV:   4    -0.230636378944E+03    0.37419E-05   -0.11059E-05 33680   0.144E-02    0.540E-03
DAV:   5    -0.230636378561E+03    0.38299E-06   -0.40876E-06 25984   0.842E-03
  22 F= -.23063638E+03 E0= -.23063638E+03  d E =-.740645E-04  mag=     0.0000
       N       E                     dE             d eps       ncg     rms          rms(c)
DAV:   1    -0.230636382466E+03   -0.35224E-05   -0.16201E-03 27296   0.137E-01    0.990E-03
DAV:   2    -0.230636386039E+03   -0.35727E-05   -0.41995E-05 36352   0.360E-02    0.143E-02
DAV:   3    -0.230636383757E+03    0.22816E-05   -0.56168E-06 29488   0.189E-02    0.397E-03
DAV:   4    -0.230636383405E+03    0.35231E-06   -0.11528E-06 17584   0.530E-03
  23 F= -.23063638E+03 E0= -.23063638E+03  d E =-.789086E-04  mag=     0.0000
       N       E                     dE             d eps       ncg     rms          rms(c)
DAV:   1    -0.230636393495E+03   -0.97381E-05   -0.78785E-03 27216   0.431E-01    0.249E-02
DAV:   2    -0.230636425316E+03   -0.31820E-04   -0.37225E-04 32048   0.855E-02    0.268E-02
DAV:   3    -0.230636416638E+03    0.86779E-05   -0.31012E-05 37120   0.465E-02    0.124E-02
DAV:   4    -0.230636414385E+03    0.22529E-05   -0.86757E-06 36240   0.162E-02    0.356E-03
DAV:   5    -0.230636414270E+03    0.11503E-06   -0.12549E-06 17856   0.532E-03
  24 F= -.23063641E+03 E0= -.23063641E+03  d E =-.308648E-04  mag=     0.0000
       N       E                     dE             d eps       ncg     rms          rms(c)
DAV:   1    -0.230636414608E+03   -0.22274E-06   -0.17068E-04 27904   0.636E-02    0.457E-03
DAV:   2    -0.230636415544E+03   -0.93625E-06   -0.84643E-06 29712   0.148E-02
  25 F= -.23063642E+03 E0= -.23063642E+03  d E =-.321388E-04  mag=     0.0000
       N       E                     dE             d eps       ncg     rms          rms(c)
DAV:   1    -0.230636394859E+03    0.19749E-04   -0.69761E-03 27216   0.424E-01    0.183E-02
DAV:   2    -0.230636429955E+03   -0.35096E-04   -0.40502E-04 29824   0.823E-02    0.204E-02
DAV:   3    -0.230636425690E+03    0.42653E-05   -0.14153E-05 36480   0.296E-02    0.990E-03
DAV:   4    -0.230636423860E+03    0.18298E-05   -0.35703E-06 28896   0.122E-02    0.420E-03
DAV:   5    -0.230636423590E+03    0.26998E-06   -0.27639E-06 23888   0.644E-03
  26 F= -.23063642E+03 E0= -.23063642E+03  d E =-.804604E-05  mag=     0.0000
       N       E                     dE             d eps       ncg     rms          rms(c)
DAV:   1    -0.230636422858E+03    0.10018E-05   -0.61802E-04 27232   0.127E-01    0.512E-03
DAV:   2    -0.230636425906E+03   -0.30482E-05   -0.35458E-05 29728   0.243E-02    0.593E-03
DAV:   3    -0.230636425598E+03    0.30821E-06   -0.96077E-07 19232   0.866E-03
  27 F= -.23063643E+03 E0= -.23063643E+03  d E =-.100542E-04  mag=     0.0000
       N       E                     dE             d eps       ncg     rms          rms(c)
DAV:   1    -0.230636429636E+03   -0.37295E-05   -0.42843E-03 27216   0.263E-01    0.136E-02
DAV:   2    -0.230636438863E+03   -0.92271E-05   -0.12720E-04 32096   0.498E-02    0.147E-02
DAV:   3    -0.230636436412E+03    0.24505E-05   -0.77965E-06 35072   0.235E-02    0.755E-03
DAV:   4    -0.230636435068E+03    0.13443E-05   -0.22120E-06 22480   0.963E-03    0.304E-03
DAV:   5    -0.230636434914E+03    0.15409E-06   -0.22976E-06 19616   0.592E-03
  28 F= -.23063643E+03 E0= -.23063643E+03  d E =-.931595E-05  mag=    -0.0000
