       N       E                     dE             d eps       ncg     rms          rms(c)
DAV:   1     0.336485267489E+04    0.33649E+04   -0.20982E+05 17592   0.137E+03
DAV:   2    -0.343749245303E+03   -0.37086E+04   -0.34466E+04 22936   0.369E+02
DAV:   3    -0.898811318848E+03   -0.55506E+03   -0.54590E+03 28064   0.162E+02
DAV:   4    -0.921958663339E+03   -0.23147E+02   -0.22962E+02 27720   0.497E+01
DAV:   5    -0.922651393379E+03   -0.69273E+00   -0.68961E+00 28472   0.948E+00    0.832E+01
DAV:   6    -0.757710402896E+03    0.16494E+03   -0.77343E+02 28664   0.604E+01    0.266E+01
DAV:   7    -0.769182925585E+03   -0.11473E+02   -0.12688E+02 27240   0.276E+01    0.162E+01
DAV:   8    -0.768019539963E+03    0.11634E+01   -0.77976E+00 26624   0.102E+01    0.112E+01
DAV:   9    -0.769216788606E+03   -0.11972E+01   -0.71575E+00 26080   0.596E+00    0.554E+00
DAV:  10    -0.769809254892E+03   -0.59247E+00   -0.26229E+00 27432   0.363E+00    0.544E+00
DAV:  11    -0.769869433520E+03   -0.60179E-01   -0.20521E+00 26672   0.228E+00    0.249E+00
DAV:  12    -0.769976498885E+03   -0.10707E+00   -0.40735E-01 25984   0.127E+00    0.163E+00
DAV:  13    -0.770081030194E+03   -0.10453E+00   -0.42329E-01 26608   0.108E+00    0.194E+00
DAV:  14    -0.770105236029E+03   -0.24206E-01   -0.18954E-01 26112   0.741E-01    0.737E-01
DAV:  15    -0.770119783592E+03   -0.14548E-01   -0.96482E-02 26760   0.438E-01    0.762E-01
DAV:  16    -0.770123238519E+03   -0.34549E-02   -0.12942E-02 26384   0.270E-01    0.528E-01
DAV:  17    -0.770124881633E+03   -0.16431E-02   -0.16197E-02 25872   0.236E-01    0.198E-01
DAV:  18    -0.770125384590E+03   -0.50296E-03   -0.41556E-03 26648   0.140E-01    0.121E-01
DAV:  19    -0.770125594692E+03   -0.21010E-03   -0.73888E-04 26400   0.727E-02    0.712E-02
DAV:  20    -0.770125812623E+03   -0.21793E-03   -0.90778E-04 24664   0.745E-02    0.789E-02
DAV:  21    -0.770125935794E+03   -0.12317E-03   -0.66643E-04 26280   0.658E-02    0.513E-02
DAV:  22    -0.770125993052E+03   -0.57258E-04   -0.28193E-04 27336   0.387E-02    0.289E-02
DAV:  23    -0.770126025866E+03   -0.32814E-04   -0.84886E-05 24872   0.235E-02    0.223E-02
DAV:  24    -0.770126065869E+03   -0.40003E-04   -0.18978E-04 24576   0.346E-02    0.143E-02
DAV:  25    -0.770126090086E+03   -0.24217E-04   -0.23137E-04 26512   0.388E-02    0.155E-02
DAV:  26    -0.770126096553E+03   -0.64663E-05   -0.65189E-05 26920   0.181E-02    0.892E-03
DAV:  27    -0.770126097340E+03   -0.78704E-06   -0.91038E-06 18416   0.794E-03
   1 F= -.77012610E+03 E0= -.77012610E+03  d E =-.770126E+03  mag=     2.0013
       N       E                     dE             d eps       ncg     rms          rms(c)
DAV:   1    -0.757393229353E+03    0.12733E+02   -0.33147E+03 18608   0.137E+02    0.149E+01
DAV:   2    -0.779657344418E+03   -0.22264E+02   -0.28135E+02 23984   0.408E+01    0.110E+01
DAV:   3    -0.777886527544E+03    0.17708E+01   -0.14626E+01 27976   0.117E+01    0.110E+01
DAV:   4    -0.777978026591E+03   -0.91499E-01   -0.34168E+01 27128   0.559E+00    0.669E+00
DAV:   5    -0.777129951158E+03    0.84808E+00   -0.44706E+00 25848   0.500E+00    0.386E+00
DAV:   6    -0.776961965363E+03    0.16799E+00   -0.11638E+00 26440   0.276E+00    0.324E+00
DAV:   7    -0.776747828517E+03    0.21414E+00   -0.43508E-01 26672   0.188E+00    0.224E+00
DAV:   8    -0.776646399944E+03    0.10143E+00   -0.19377E-01 28072   0.130E+00    0.172E+00
DAV:   9    -0.776570602886E+03    0.75797E-01   -0.56835E-02 28344   0.788E-01    0.129E+00
DAV:  10    -0.776508093436E+03    0.62509E-01   -0.31856E-02 29104   0.745E-01    0.892E-01
DAV:  11    -0.776467352719E+03    0.40741E-01   -0.99154E-02 27752   0.950E-01    0.218E-01
DAV:  12    -0.776472398549E+03   -0.50458E-02   -0.57399E-02 25224   0.502E-01    0.222E-01
DAV:  13    -0.776472449358E+03   -0.50809E-04   -0.40047E-03 26584   0.166E-01    0.203E-01
DAV:  14    -0.776472948456E+03   -0.49910E-03   -0.27872E-03 25736   0.435E-02    0.420E-01
DAV:  15    -0.776475290295E+03   -0.23418E-02   -0.17372E-02 25976   0.948E-02    0.123E+00
DAV:  16    -0.776472680028E+03    0.26103E-02   -0.27412E-02 25672   0.665E-02    0.393E-01
DAV:  17    -0.776472362104E+03    0.31792E-03   -0.28008E-02 31032   0.135E-01    0.145E-01
DAV:  18    -0.776472134309E+03    0.22780E-03   -0.20712E-03 25336   0.692E-02    0.575E-02
DAV:  19    -0.776472121669E+03    0.12640E-04   -0.96236E-04 26560   0.415E-02    0.398E-02
DAV:  20    -0.776472127123E+03   -0.54541E-05   -0.64219E-05 25664   0.221E-02    0.368E-02
DAV:  21    -0.776472133372E+03   -0.62494E-05   -0.14247E-04 25256   0.155E-02    0.395E-02
DAV:  22    -0.776472121835E+03    0.11537E-04   -0.40275E-05 25080   0.927E-03    0.276E-02
DAV:  23    -0.776472118760E+03    0.30746E-05   -0.19892E-05 13808   0.490E-03    0.263E-02
DAV:  24    -0.776472113568E+03    0.51920E-05   -0.11527E-05 12824   0.587E-03    0.185E-02
DAV:  25    -0.776472111605E+03    0.19629E-05   -0.67794E-06 14656   0.453E-03    0.134E-02
DAV:  26    -0.776472110703E+03    0.90214E-06   -0.19565E-06 10664   0.412E-03
   2 F= -.77647211E+03 E0= -.77647211E+03  d E =-.634601E+01  mag=     0.0004
       N       E                     dE             d eps       ncg     rms          rms(c)
DAV:   1    -0.777941788350E+03   -0.14697E+01   -0.48941E+02 18608   0.531E+01    0.646E+00
DAV:   2    -0.781312803234E+03   -0.33710E+01   -0.48832E+01 23952   0.147E+01    0.490E+00
DAV:   3    -0.780723790451E+03    0.58901E+00   -0.19896E+00 26928   0.532E+00    0.329E+00
DAV:   4    -0.781248015753E+03   -0.52423E+00   -0.96333E+00 26128   0.301E+00    0.927E+00
DAV:   5    -0.780453425252E+03    0.79459E+00   -0.98624E-01 25728   0.183E+00    0.192E+00
DAV:   6    -0.780512964252E+03   -0.59539E-01   -0.75023E-01 26096   0.120E+00    0.684E+00
DAV:   7    -0.780446364371E+03    0.66600E-01   -0.47102E+00 29480   0.121E+00    0.113E+00
DAV:   8    -0.780454823068E+03   -0.84587E-02   -0.57259E-02 24320   0.482E-01    0.119E+00
DAV:   9    -0.780452349030E+03    0.24740E-02   -0.93320E-03 26208   0.249E-01    0.115E+00
DAV:  10    -0.780439265219E+03    0.13084E-01   -0.10095E-02 28136   0.216E-01    0.967E-01
DAV:  11    -0.780429380273E+03    0.98849E-02   -0.76308E-03 28352   0.167E-01    0.786E-01
DAV:  12    -0.780427048700E+03    0.23316E-02   -0.12900E-03 26816   0.836E-02    0.747E-01
DAV:  13    -0.780423744730E+03    0.33040E-02   -0.13014E-03 26336   0.601E-02    0.674E-01
DAV:  14    -0.780419642928E+03    0.41018E-02   -0.46869E-03 26664   0.866E-02    0.486E-01
DAV:  15    -0.780419646130E+03   -0.32017E-05   -0.31024E-04 25464   0.394E-02    0.476E-01
DAV:  16    -0.780419720704E+03   -0.74574E-04   -0.20141E-05 25832   0.109E-02    0.481E-01
DAV:  17    -0.780419421452E+03    0.29925E-03   -0.74807E-05 26240   0.146E-02    0.460E-01
DAV:  18    -0.780418861437E+03    0.56001E-03   -0.10811E-03 29224   0.446E-02    0.402E-01
DAV:  19    -0.780418774672E+03    0.86766E-04   -0.95744E-05 25464   0.219E-02    0.396E-01
DAV:  20    -0.780417904964E+03    0.86971E-03   -0.16466E-03 25416   0.394E-02    0.258E-01
DAV:  21    -0.780417849690E+03    0.55274E-04   -0.38099E-04 26304   0.418E-02    0.240E-01
DAV:  22    -0.780417514790E+03    0.33490E-03   -0.48012E-03 26968   0.566E-02    0.945E-02
DAV:  23    -0.780417564516E+03   -0.49726E-04   -0.21099E-03 25624   0.354E-02    0.114E-01
DAV:  24    -0.780417491218E+03    0.73298E-04   -0.70363E-04 27584   0.245E-02    0.473E-02
DAV:  25    -0.780417490413E+03    0.80472E-06   -0.93439E-05 26320   0.108E-02    0.384E-02
DAV:  26    -0.780417481790E+03    0.86235E-05   -0.37910E-05 21160   0.812E-03    0.298E-02
DAV:  27    -0.780417474289E+03    0.75010E-05   -0.20145E-05 25456   0.866E-03    0.174E-02
DAV:  28    -0.780417474148E+03    0.14085E-06   -0.63654E-06 12312   0.442E-03
   3 F= -.78041747E+03 E0= -.78041747E+03  d E =-.102914E+02  mag=     0.0000
       N       E                     dE             d eps       ncg     rms          rms(c)
DAV:   1    -0.776344108095E+03    0.40734E+01   -0.80532E+02 18464   0.686E+01    0.567E+00
DAV:   2    -0.782046850315E+03   -0.57027E+01   -0.67717E+01 23760   0.191E+01    0.402E+00
DAV:   3    -0.781917805091E+03    0.12905E+00   -0.26595E+00 27712   0.534E+00    0.257E+00
DAV:   4    -0.781776603885E+03    0.14120E+00   -0.66825E-01 26408   0.225E+00    0.105E+00
DAV:   5    -0.781765578628E+03    0.11025E-01   -0.18859E-01 25848   0.134E+00    0.559E-01
DAV:   6    -0.781765944187E+03   -0.36556E-03   -0.53590E-02 26752   0.666E-01    0.296E-01
DAV:   7    -0.781766753500E+03   -0.80931E-03   -0.16065E-02 26232   0.358E-01    0.188E-01
DAV:   8    -0.781767037316E+03   -0.28382E-03   -0.33150E-03 26808   0.193E-01    0.840E-02
DAV:   9    -0.781767184881E+03   -0.14757E-03   -0.89520E-04 26480   0.963E-02    0.441E-02
DAV:  10    -0.781767242467E+03   -0.57586E-04   -0.26865E-04 26272   0.581E-02    0.274E-02
DAV:  11    -0.781767244828E+03   -0.23608E-05   -0.12944E-04 26856   0.311E-02    0.118E-02
DAV:  12    -0.781767249113E+03   -0.42851E-05   -0.35898E-05 25776   0.171E-02    0.914E-03
DAV:  13    -0.781767250062E+03   -0.94904E-06   -0.56544E-06 20408   0.947E-03
   4 F= -.78176725E+03 E0= -.78176725E+03  d E =-.134978E+01  mag=     0.0000
       N       E                     dE             d eps       ncg     rms          rms(c)
DAV:   1    -0.781725728579E+03    0.41521E-01   -0.11319E+02 18880   0.260E+01    0.216E+00
DAV:   2    -0.782549032497E+03   -0.82330E+00   -0.10017E+01 22840   0.703E+00    0.145E+00
DAV:   3    -0.782534169275E+03    0.14863E-01   -0.41220E-01 27464   0.203E+00    0.970E-01
DAV:   4    -0.782512782533E+03    0.21387E-01   -0.10527E-01 26648   0.881E-01    0.378E-01
DAV:   5    -0.782511659874E+03    0.11227E-02   -0.30093E-02 25744   0.531E-01    0.235E-01
DAV:   6    -0.782511308850E+03    0.35102E-03   -0.79055E-03 26496   0.235E-01    0.121E-01
DAV:   7    -0.782511377847E+03   -0.68997E-04   -0.27137E-03 26344   0.146E-01    0.707E-02
DAV:   8    -0.782511391838E+03   -0.13991E-04   -0.48918E-04 26704   0.702E-02    0.325E-02
DAV:   9    -0.782511399731E+03   -0.78934E-05   -0.15249E-04 26528   0.393E-02    0.173E-02
DAV:  10    -0.782511406422E+03   -0.66911E-05   -0.58319E-05 25960   0.222E-02    0.137E-02
DAV:  11    -0.782511404521E+03    0.19012E-05   -0.21648E-05 25760   0.137E-02    0.467E-03
DAV:  12    -0.782511405430E+03   -0.90911E-06   -0.75958E-06 21624   0.773E-03
   5 F= -.78251141E+03 E0= -.78251141E+03  d E =-.209393E+01  mag=     0.0000
       N       E                     dE             d eps       ncg     rms          rms(c)
DAV:   1    -0.782344910066E+03    0.16649E+00   -0.19717E+02 18448   0.319E+01    0.278E+00
DAV:   2    -0.783306100637E+03   -0.96119E+00   -0.12076E+01 23680   0.856E+00    0.183E+00
DAV:   3    -0.783252212015E+03    0.53889E-01   -0.43496E-01 27280   0.234E+00    0.118E+00
DAV:   4    -0.783216020313E+03    0.36192E-01   -0.20616E-01 26952   0.123E+00    0.427E-01
DAV:   5    -0.783217189319E+03   -0.11690E-02   -0.62376E-02 25984   0.696E-01    0.366E-01
DAV:   6    -0.783215802636E+03    0.13867E-02   -0.14676E-02 27200   0.301E-01    0.176E-01
DAV:   7    -0.783215866208E+03   -0.63571E-04   -0.38020E-03 26312   0.176E-01    0.825E-02
DAV:   8    -0.783215951419E+03   -0.85211E-04   -0.74612E-04 26864   0.102E-01    0.389E-02
DAV:   9    -0.783215984106E+03   -0.32687E-04   -0.21030E-04 26912   0.498E-02    0.199E-02
DAV:  10    -0.783215996247E+03   -0.12141E-04   -0.81032E-05 26480   0.277E-02    0.134E-02
DAV:  11    -0.783215997158E+03   -0.91125E-06   -0.17103E-05 26616   0.141E-02    0.628E-03
DAV:  12    -0.783215999206E+03   -0.20481E-05   -0.13606E-05 25664   0.931E-03    0.587E-03
DAV:  13    -0.783215998989E+03    0.21751E-06   -0.11604E-06 12656   0.557E-03
   6 F= -.78321600E+03 E0= -.78321600E+03  d E =-.704594E+00  mag=     0.0000
       N       E                     dE             d eps       ncg     rms          rms(c)
DAV:   1    -0.783215990297E+03    0.89094E-05   -0.19997E+00 18792   0.324E+00    0.279E-01
DAV:   2    -0.783225798198E+03   -0.98079E-02   -0.12304E-01 23936   0.865E-01    0.186E-01
DAV:   3    -0.783225253126E+03    0.54507E-03   -0.44584E-03 27232   0.238E-01    0.120E-01
DAV:   4    -0.783224871305E+03    0.38182E-03   -0.20387E-03 27008   0.128E-01    0.419E-02
DAV:   5    -0.783224888294E+03   -0.16989E-04   -0.67232E-04 25984   0.716E-02    0.368E-02
DAV:   6    -0.783224873316E+03    0.14978E-04   -0.13949E-04 27168   0.306E-02    0.186E-02
DAV:   7    -0.783224873356E+03   -0.40123E-07   -0.41294E-05 26256   0.176E-02    0.869E-03
DAV:   8    -0.783224874162E+03   -0.80629E-06   -0.80782E-06 23560   0.104E-02
   7 F= -.78322487E+03 E0= -.78322487E+03  d E =-.713469E+00  mag=     0.0000
       N       E                     dE             d eps       ncg     rms          rms(c)
DAV:   1    -0.783052791990E+03    0.17208E+00   -0.96179E+01 18896   0.233E+01    0.176E+00
DAV:   2    -0.783616698264E+03   -0.56391E+00   -0.67984E+00 23648   0.606E+00    0.109E+00
DAV:   3    -0.783611291110E+03    0.54072E-02   -0.28963E-01 26912   0.173E+00    0.729E-01
DAV:   4    -0.783599503499E+03    0.11788E-01   -0.50195E-02 26576   0.655E-01    0.317E-01
DAV:   5    -0.783598564022E+03    0.93948E-03   -0.18245E-02 26032   0.404E-01    0.162E-01
DAV:   6    -0.783598546368E+03    0.17654E-04   -0.35660E-03 26776   0.192E-01    0.952E-02
DAV:   7    -0.783598646393E+03   -0.10002E-03   -0.17289E-03 26112   0.102E-01    0.590E-02
DAV:   8    -0.783598652341E+03   -0.59481E-05   -0.21202E-04 27064   0.527E-02    0.271E-02
DAV:   9    -0.783598656019E+03   -0.36780E-05   -0.90651E-05 26240   0.274E-02    0.108E-02
DAV:  10    -0.783598658609E+03   -0.25902E-05   -0.28917E-05 26152   0.164E-02    0.826E-03
DAV:  11    -0.783598658011E+03    0.59792E-06   -0.73911E-06 24496   0.860E-03
   8 F= -.78359866E+03 E0= -.78359866E+03  d E =-.373784E+00  mag=    -0.0000
       N       E                     dE             d eps       ncg     rms          rms(c)
DAV:   1    -0.783595540451E+03    0.31182E-02   -0.11988E+00 19208   0.261E+00    0.198E-01
DAV:   2    -0.783602639238E+03   -0.70988E-02   -0.85818E-02 23632   0.676E-01    0.120E-01
DAV:   3    -0.783602586879E+03    0.52358E-04   -0.36173E-03 27168   0.192E-01    0.807E-02
DAV:   4    -0.783602447856E+03    0.13902E-03   -0.60585E-04 26584   0.715E-02    0.349E-02
DAV:   5    -0.783602436978E+03    0.10879E-04   -0.22062E-04 25944   0.454E-02    0.180E-02
DAV:   6    -0.783602437141E+03   -0.16317E-06   -0.44247E-05 26784   0.218E-02    0.108E-02
DAV:   7    -0.783602438205E+03   -0.10643E-05   -0.22144E-05 25856   0.115E-02    0.662E-03
DAV:   8    -0.783602438204E+03    0.12005E-08   -0.19377E-06 13808   0.626E-03
   9 F= -.78360244E+03 E0= -.78360244E+03  d E =-.377564E+00  mag=    -0.0000
       N       E                     dE             d eps       ncg     rms          rms(c)
DAV:   1    -0.783361841207E+03    0.24060E+00   -0.80572E+01 18848   0.215E+01    0.170E+00
DAV:   2    -0.783855011625E+03   -0.49317E+00   -0.58939E+00 23632   0.550E+00    0.101E+00
DAV:   3    -0.783846074245E+03    0.89374E-02   -0.20156E-01 27488   0.152E+00    0.636E-01
DAV:   4    -0.783836111728E+03    0.99625E-02   -0.52787E-02 26704   0.643E-01    0.235E-01
DAV:   5    -0.783836514738E+03   -0.40301E-03   -0.16732E-02 26008   0.366E-01    0.176E-01
DAV:   6    -0.783836301021E+03    0.21372E-03   -0.33995E-03 26376   0.160E-01    0.901E-02
DAV:   7    -0.783836340246E+03   -0.39225E-04   -0.97251E-04 26000   0.909E-02    0.444E-02
DAV:   8    -0.783836361408E+03   -0.21162E-04   -0.15209E-04 26288   0.476E-02    0.202E-02
DAV:   9    -0.783836365621E+03   -0.42130E-05   -0.54477E-05 26536   0.249E-02    0.982E-03
DAV:  10    -0.783836368133E+03   -0.25117E-05   -0.28120E-05 25904   0.145E-02    0.729E-03
DAV:  11    -0.783836367662E+03    0.47119E-06   -0.43951E-06 18392   0.727E-03
  10 F= -.78383637E+03 E0= -.78383637E+03  d E =-.233929E+00  mag=     0.0000
       N       E                     dE             d eps       ncg     rms          rms(c)
DAV:   1    -0.783832387979E+03    0.39802E-02   -0.11202E+00 19080   0.254E+00    0.203E-01
DAV:   2    -0.783839225965E+03   -0.68380E-02   -0.82190E-02 23760   0.646E-01    0.117E-01
DAV:   3    -0.783839107607E+03    0.11836E-03   -0.27823E-03 27464   0.177E-01    0.737E-02
DAV:   4    -0.783838975205E+03    0.13240E-03   -0.71825E-04 26720   0.754E-02    0.272E-02
DAV:   5    -0.783838980855E+03   -0.56507E-05   -0.23335E-04 25968   0.429E-02    0.209E-02
DAV:   6    -0.783838977546E+03    0.33097E-05   -0.45967E-05 26512   0.184E-02    0.107E-02
DAV:   7    -0.783838977598E+03   -0.52394E-07   -0.13364E-05 25808   0.106E-02    0.515E-03
DAV:   8    -0.783838977626E+03   -0.28296E-07   -0.14836E-06 13392   0.574E-03
  11 F= -.78383898E+03 E0= -.78383898E+03  d E =-.236539E+00  mag=     0.0000
       N       E                     dE             d eps       ncg     rms          rms(c)
DAV:   1    -0.783649059949E+03    0.18992E+00   -0.62971E+01 18616   0.184E+01    0.141E+00
DAV:   2    -0.784001145797E+03   -0.35209E+00   -0.41646E+00 23680   0.473E+00    0.793E-01
DAV:   3    -0.783996959792E+03    0.41860E-02   -0.14336E-01 27648   0.129E+00    0.530E-01
DAV:   4    -0.783989612175E+03    0.73476E-02   -0.35031E-02 26832   0.591E-01    0.192E-01
DAV:   5    -0.783990511871E+03   -0.89970E-03   -0.16247E-02 25776   0.339E-01    0.177E-01
DAV:   6    -0.783990202809E+03    0.30906E-03   -0.22786E-03 26496   0.143E-01    0.110E-01
DAV:   7    -0.783990153863E+03    0.48946E-04   -0.13047E-03 26144   0.884E-02    0.453E-02
DAV:   8    -0.783990182299E+03   -0.28436E-04   -0.25118E-04 26656   0.581E-02    0.237E-02
DAV:   9    -0.783990186028E+03   -0.37295E-05   -0.75487E-05 26688   0.287E-02    0.148E-02
DAV:  10    -0.783990188301E+03   -0.22727E-05   -0.49138E-05 26128   0.188E-02    0.925E-03
DAV:  11    -0.783990188146E+03    0.15543E-06   -0.11580E-05 24928   0.103E-02    0.316E-03
DAV:  12    -0.783990188479E+03   -0.33293E-06   -0.25511E-06 13688   0.565E-03
  12 F= -.78399019E+03 E0= -.78399019E+03  d E =-.151211E+00  mag=     0.0000
       N       E                     dE             d eps       ncg     rms          rms(c)
DAV:   1    -0.783985754026E+03    0.44341E-02   -0.12278E+00 18864   0.258E+00    0.197E-01
DAV:   2    -0.783992676791E+03   -0.69228E-02   -0.81901E-02 23712   0.663E-01    0.112E-01
DAV:   3    -0.783992605487E+03    0.71304E-04   -0.28940E-03 27424   0.181E-01    0.742E-02
DAV:   4    -0.783992462462E+03    0.14303E-03   -0.65115E-04 26736   0.831E-02    0.275E-02
DAV:   5    -0.783992479045E+03   -0.16583E-04   -0.31750E-04 25856   0.478E-02    0.241E-02
DAV:   6    -0.783992473408E+03    0.56372E-05   -0.44431E-05 26528   0.204E-02    0.151E-02
DAV:   7    -0.783992472789E+03    0.61835E-06   -0.25859E-05 26048   0.124E-02    0.623E-03
DAV:   8    -0.783992473157E+03   -0.36801E-06   -0.37948E-06 17200   0.798E-03
  13 F= -.78399247E+03 E0= -.78399247E+03  d E =-.153496E+00  mag=     0.0000
       N       E                     dE             d eps       ncg     rms          rms(c)
DAV:   1    -0.783786809038E+03    0.20566E+00   -0.49754E+01 19008   0.169E+01    0.139E+00
DAV:   2    -0.784113453884E+03   -0.32664E+00   -0.38948E+00 21392   0.429E+00    0.727E-01
DAV:   3    -0.784114922052E+03   -0.14682E-02   -0.16021E-01 27472   0.120E+00    0.504E-01
DAV:   4    -0.784109495161E+03    0.54269E-02   -0.23085E-02 26480   0.442E-01    0.198E-01
DAV:   5    -0.784109556400E+03   -0.61239E-04   -0.91243E-03 26352   0.267E-01    0.134E-01
DAV:   6    -0.784109386607E+03    0.16979E-03   -0.17358E-03 26680   0.129E-01    0.768E-02
DAV:   7    -0.784109412501E+03   -0.25894E-04   -0.10376E-03 26576   0.731E-02    0.424E-02
DAV:   8    -0.784109418570E+03   -0.60684E-05   -0.12177E-04 27000   0.382E-02    0.217E-02
DAV:   9    -0.784109416318E+03    0.22520E-05   -0.47927E-05 27080   0.222E-02    0.865E-03
DAV:  10    -0.784109418787E+03   -0.24696E-05   -0.28941E-05 25176   0.126E-02    0.670E-03
DAV:  11    -0.784109418142E+03    0.64501E-06   -0.26490E-06 14224   0.689E-03
  14 F= -.78410942E+03 E0= -.78410942E+03  d E =-.116945E+00  mag=    -0.0000
       N       E                     dE             d eps       ncg     rms          rms(c)
DAV:   1    -0.784097458801E+03    0.11960E-01   -0.24657E+00 19056   0.375E+00    0.308E-01
DAV:   2    -0.784113618190E+03   -0.16159E-01   -0.19288E-01 21656   0.952E-01    0.162E-01
DAV:   3    -0.784113710626E+03   -0.92436E-04   -0.80904E-03 27248   0.264E-01    0.112E-01
DAV:   4    -0.784113444474E+03    0.26615E-03   -0.11271E-03 26512   0.981E-02    0.448E-02
DAV:   5    -0.784113446620E+03   -0.21458E-05   -0.45191E-04 26048   0.595E-02    0.292E-02
DAV:   6    -0.784113439437E+03    0.71832E-05   -0.83534E-05 26784   0.282E-02    0.167E-02
DAV:   7    -0.784113441219E+03   -0.17816E-05   -0.50838E-05 26384   0.165E-02    0.942E-03
DAV:   8    -0.784113441589E+03   -0.37084E-06   -0.49182E-06 17200   0.852E-03
  15 F= -.78411344E+03 E0= -.78411344E+03  d E =-.120968E+00  mag=    -0.0000
       N       E                     dE             d eps       ncg     rms          rms(c)
DAV:   1    -0.783814476829E+03    0.29896E+00   -0.42145E+01 19088   0.164E+01    0.134E+00
DAV:   2    -0.784185636747E+03   -0.37116E+00   -0.42891E+00 19568   0.414E+00    0.681E-01
DAV:   3    -0.784191666213E+03   -0.60295E-02   -0.17194E-01 27472   0.114E+00    0.493E-01
DAV:   4    -0.784186686360E+03    0.49799E-02   -0.22261E-02 26608   0.435E-01    0.192E-01
DAV:   5    -0.784186991718E+03   -0.30536E-03   -0.95212E-03 26032   0.258E-01    0.142E-01
DAV:   6    -0.784186774080E+03    0.21764E-03   -0.18029E-03 26408   0.128E-01    0.816E-02
DAV:   7    -0.784186776063E+03   -0.19826E-05   -0.99857E-04 26368   0.724E-02    0.397E-02
DAV:   8    -0.784186785390E+03   -0.93274E-05   -0.13608E-04 27232   0.397E-02    0.201E-02
DAV:   9    -0.784186787082E+03   -0.16921E-05   -0.35528E-05 25856   0.232E-02    0.822E-03
DAV:  10    -0.784186789723E+03   -0.26409E-05   -0.25260E-05 25760   0.118E-02    0.620E-03
DAV:  11    -0.784186789144E+03    0.57895E-06   -0.23681E-06 14544   0.645E-03
  16 F= -.78418679E+03 E0= -.78418679E+03  d E =-.733476E-01  mag=     0.0000
       N       E                     dE             d eps       ncg     rms          rms(c)
DAV:   1    -0.784186574248E+03    0.21547E-03   -0.29031E-02 19496   0.431E-01    0.346E-02
DAV:   2    -0.784186836133E+03   -0.26188E-03   -0.30184E-03 20128   0.109E-01    0.183E-02
DAV:   3    -0.784186840044E+03   -0.39117E-05   -0.11651E-04 27552   0.297E-02    0.132E-02
DAV:   4    -0.784186836441E+03    0.36037E-05   -0.18821E-05 25792   0.124E-02    0.483E-03
DAV:   5    -0.784186836679E+03   -0.23782E-06   -0.56211E-06 18288   0.705E-03
  17 F= -.78418684E+03 E0= -.78418684E+03  d E =-.733951E-01  mag=     0.0000
       N       E                     dE             d eps       ncg     rms          rms(c)
DAV:   1    -0.783958824287E+03    0.22801E+00   -0.31821E+01 18976   0.140E+01    0.112E+00
DAV:   2    -0.784237102391E+03   -0.27828E+00   -0.31864E+00 19656   0.354E+00    0.542E-01
DAV:   3    -0.784242841027E+03   -0.57386E-02   -0.13090E-01 27480   0.980E-01    0.397E-01
DAV:   4    -0.784239753031E+03    0.30880E-02   -0.11852E-02 26832   0.344E-01    0.182E-01
DAV:   5    -0.784239767387E+03   -0.14356E-04   -0.73447E-03 26488   0.226E-01    0.109E-01
DAV:   6    -0.784239671842E+03    0.95545E-04   -0.13525E-03 26240   0.122E-01    0.722E-02
DAV:   7    -0.784239669157E+03    0.26853E-05   -0.82115E-04 26336   0.637E-02    0.375E-02
DAV:   8    -0.784239671324E+03   -0.21673E-05   -0.10961E-04 26672   0.348E-02    0.175E-02
DAV:   9    -0.784239674465E+03   -0.31408E-05   -0.39899E-05 26160   0.208E-02    0.671E-03
DAV:  10    -0.784239675937E+03   -0.14716E-05   -0.14726E-05 25584   0.107E-02    0.545E-03
DAV:  11    -0.784239675619E+03    0.31815E-06   -0.18857E-06 13808   0.604E-03
  18 F= -.78423968E+03 E0= -.78423968E+03  d E =-.528389E-01  mag=     0.0000
       N       E                     dE             d eps       ncg     rms          rms(c)
DAV:   1    -0.784237227941E+03    0.24480E-02   -0.33714E-01 19240   0.145E+00    0.115E-01
DAV:   2    -0.784240134725E+03   -0.29068E-02   -0.33366E-02 19920   0.367E-01    0.557E-02
DAV:   3    -0.784240194223E+03   -0.59498E-04   -0.13623E-03 27544   0.100E-01    0.408E-02
DAV:   4    -0.784240161475E+03    0.32748E-04   -0.13250E-04 26712   0.356E-02    0.180E-02
DAV:   5    -0.784240162341E+03   -0.86614E-06   -0.73079E-05 26312   0.230E-02    0.111E-02
DAV:   6    -0.784240161494E+03    0.84756E-06   -0.13224E-05 26192   0.121E-02    0.709E-03
DAV:   7    -0.784240161587E+03   -0.93376E-07   -0.79449E-06 23840   0.654E-03
  19 F= -.78424016E+03 E0= -.78424016E+03  d E =-.533249E-01  mag=     0.0000
       N       E                     dE             d eps       ncg     rms          rms(c)
DAV:   1    -0.784065613983E+03    0.17455E+00   -0.29631E+01 19040   0.131E+01    0.987E-01
DAV:   2    -0.784279780632E+03   -0.21417E+00   -0.24753E+00 20808   0.331E+00    0.513E-01
DAV:   3    -0.784281088160E+03   -0.13075E-02   -0.88399E-02 27472   0.869E-01    0.359E-01
DAV:   4    -0.784278163681E+03    0.29245E-02   -0.13494E-02 26272   0.330E-01    0.140E-01
DAV:   5    -0.784278270496E+03   -0.10681E-03   -0.50116E-03 25680   0.197E-01    0.102E-01
DAV:   6    -0.784278185682E+03    0.84813E-04   -0.11986E-03 26688   0.891E-02    0.552E-02
DAV:   7    -0.784278193425E+03   -0.77422E-05   -0.50209E-04 26320   0.559E-02    0.303E-02
DAV:   8    -0.784278194718E+03   -0.12935E-05   -0.71971E-05 26384   0.282E-02    0.159E-02
DAV:   9    -0.784278193818E+03    0.89990E-06   -0.38539E-05 25936   0.163E-02    0.686E-03
DAV:  10    -0.784278194898E+03   -0.10800E-05   -0.11068E-05 24832   0.102E-02    0.338E-03
DAV:  11    -0.784278194985E+03   -0.86307E-07   -0.13028E-06 12984   0.442E-03
  20 F= -.78427819E+03 E0= -.78427819E+03  d E =-.380334E-01  mag=     0.0000
       N       E                     dE             d eps       ncg     rms          rms(c)
DAV:   1    -0.784278179995E+03    0.14904E-04   -0.25404E-03 19664   0.119E-01    0.971E-03
DAV:   2    -0.784278198406E+03   -0.18412E-04   -0.21468E-04 21736   0.302E-02    0.461E-03
DAV:   3    -0.784278198545E+03   -0.13862E-06   -0.73954E-06 21512   0.813E-03
  21 F= -.78427820E+03 E0= -.78427820E+03  d E =-.380370E-01  mag=    -0.0000
       N       E                     dE             d eps       ncg     rms          rms(c)
DAV:   1    -0.784165515693E+03    0.11268E+00   -0.13504E+01 18896   0.927E+00    0.767E-01
DAV:   2    -0.784299981038E+03   -0.13447E+00   -0.15415E+00 18928   0.236E+00    0.362E-01
DAV:   3    -0.784303079567E+03   -0.30985E-02   -0.61201E-02 27552   0.618E-01    0.260E-01
DAV:   4    -0.784301787376E+03    0.12922E-02   -0.53668E-03 26496   0.217E-01    0.111E-01
DAV:   5    -0.784301845765E+03   -0.58389E-04   -0.26457E-03 25536   0.134E-01    0.689E-02
DAV:   6    -0.784301805327E+03    0.40438E-04   -0.55229E-04 26848   0.686E-02    0.409E-02
DAV:   7    -0.784301810092E+03   -0.47646E-05   -0.25936E-04 26128   0.375E-02    0.239E-02
DAV:   8    -0.784301811370E+03   -0.12784E-05   -0.41234E-05 27184   0.208E-02    0.108E-02
DAV:   9    -0.784301812555E+03   -0.11853E-05   -0.17545E-05 25616   0.128E-02    0.471E-03
DAV:  10    -0.784301812892E+03   -0.33708E-06   -0.50645E-06 19968   0.707E-03
  22 F= -.78430181E+03 E0= -.78430181E+03  d E =-.236143E-01  mag=     0.0000
       N       E                     dE             d eps       ncg     rms          rms(c)
DAV:   1    -0.784301799941E+03    0.12614E-04   -0.15030E-03 19808   0.983E-02    0.791E-03
DAV:   2    -0.784301815350E+03   -0.15409E-04   -0.17513E-04 20160   0.252E-02    0.414E-03
DAV:   3    -0.784301815694E+03   -0.34398E-06   -0.63513E-06 20464   0.681E-03
  23 F= -.78430182E+03 E0= -.78430182E+03  d E =-.236171E-01  mag=    -0.0000
       N       E                     dE             d eps       ncg     rms          rms(c)
DAV:   1    -0.784263378035E+03    0.38437E-01   -0.64518E+00 18944   0.631E+00    0.503E-01
DAV:   2    -0.784316444229E+03   -0.53066E-01   -0.61745E-01 19648   0.159E+00    0.257E-01
DAV:   3    -0.784317372614E+03   -0.92838E-03   -0.25712E-02 27360   0.426E-01    0.181E-01
DAV:   4    -0.784316760423E+03    0.61219E-03   -0.30876E-03 26688   0.159E-01    0.776E-02
DAV:   5    -0.784316727985E+03    0.32438E-04   -0.96449E-04 26048   0.942E-02    0.404E-02
DAV:   6    -0.784316736698E+03   -0.87126E-05   -0.31082E-04 26640   0.454E-02    0.260E-02
DAV:   7    -0.784316737205E+03   -0.50700E-06   -0.80816E-05 26544   0.231E-02    0.167E-02
DAV:   8    -0.784316737523E+03   -0.31834E-06   -0.22204E-05 26736   0.136E-02    0.698E-03
DAV:   9    -0.784316737684E+03   -0.16134E-06   -0.53903E-06 22064   0.854E-03
  24 F= -.78431674E+03 E0= -.78431674E+03  d E =-.149220E-01  mag=     0.0000
       N       E                     dE             d eps       ncg     rms          rms(c)
DAV:   1    -0.784316364453E+03    0.37307E-03   -0.57105E-02 19408   0.595E-01    0.475E-02
DAV:   2    -0.784316840925E+03   -0.47647E-03   -0.55389E-03 19968   0.150E-01    0.241E-02
DAV:   3    -0.784316850870E+03   -0.99445E-05   -0.23411E-04 27376   0.406E-02    0.173E-02
DAV:   4    -0.784316845611E+03    0.52589E-05   -0.26550E-05 26720   0.148E-02    0.770E-03
DAV:   5    -0.784316845604E+03    0.62828E-08   -0.90598E-06 23472   0.911E-03
  25 F= -.78431685E+03 E0= -.78431685E+03  d E =-.150299E-01  mag=    -0.0000
       N       E                     dE             d eps       ncg     rms          rms(c)
DAV:   1    -0.784288705324E+03    0.28140E-01   -0.56735E+00 18944   0.574E+00    0.443E-01
DAV:   2    -0.784329297143E+03   -0.40592E-01   -0.46902E-01 20752   0.145E+00    0.238E-01
DAV:   3    -0.784329769423E+03   -0.47228E-03   -0.18516E-02 27808   0.397E-01    0.167E-01
DAV:   4    -0.784329217339E+03    0.55208E-03   -0.29235E-03 26464   0.149E-01    0.652E-02
DAV:   5    -0.784329233156E+03   -0.15816E-04   -0.95738E-04 26224   0.888E-02    0.463E-02
DAV:   6    -0.784329217611E+03    0.15544E-04   -0.21994E-04 26736   0.400E-02    0.240E-02
DAV:   7    -0.784329219539E+03   -0.19278E-05   -0.87971E-05 26272   0.244E-02    0.129E-02
DAV:   8    -0.784329219740E+03   -0.20078E-06   -0.12573E-05 26192   0.125E-02    0.601E-03
DAV:   9    -0.784329219519E+03    0.22139E-06   -0.21587E-06 14512   0.695E-03
  26 F= -.78432922E+03 E0= -.78432922E+03  d E =-.123739E-01  mag=    -0.0000
       N       E                     dE             d eps       ncg     rms          rms(c)
DAV:   1    -0.784328899512E+03    0.32023E-03   -0.60455E-02 19344   0.592E-01    0.459E-02
DAV:   2    -0.784329326336E+03   -0.42682E-03   -0.49565E-03 21264   0.149E-01    0.245E-02
DAV:   3    -0.784329331778E+03   -0.54419E-05   -0.19966E-04 27728   0.411E-02    0.171E-02
DAV:   4    -0.784329325704E+03    0.60741E-05   -0.27701E-05 26448   0.149E-02    0.701E-03
DAV:   5    -0.784329325679E+03    0.25124E-07   -0.10136E-05 23672   0.922E-03    0.450E-03
DAV:   6    -0.784329325406E+03    0.27291E-06   -0.13432E-06 13040   0.448E-03
  27 F= -.78432933E+03 E0= -.78432933E+03  d E =-.124798E-01  mag=    -0.0000
       N       E                     dE             d eps       ncg     rms          rms(c)
DAV:   1    -0.784314682888E+03    0.14643E-01   -0.51087E+00 18704   0.503E+00    0.365E-01
DAV:   2    -0.784339564264E+03   -0.24881E-01   -0.28540E-01 23312   0.129E+00    0.219E-01
DAV:   3    -0.784339271736E+03    0.29253E-03   -0.10442E-02 28416   0.357E-01    0.143E-01
DAV:   4    -0.784338728175E+03    0.54356E-03   -0.29423E-03 26992   0.158E-01    0.505E-02
DAV:   5    -0.784338793697E+03   -0.65522E-04   -0.11452E-03 25904   0.905E-02    0.469E-02
DAV:   6    -0.784338774418E+03    0.19279E-04   -0.16462E-04 26960   0.360E-02    0.278E-02
DAV:   7    -0.784338773453E+03    0.96469E-06   -0.72130E-05 26336   0.222E-02    0.125E-02
DAV:   8    -0.784338774717E+03   -0.12635E-05   -0.14043E-05 26368   0.135E-02    0.593E-03
DAV:   9    -0.784338774661E+03    0.55850E-07   -0.26008E-06 15328   0.710E-03
  28 F= -.78433877E+03 E0= -.78433877E+03  d E =-.944926E-02  mag=     0.0000
       N       E                     dE             d eps       ncg     rms          rms(c)
DAV:   1    -0.784338584471E+03    0.19025E-03   -0.60909E-02 19048   0.549E-01    0.400E-02
DAV:   2    -0.784338880782E+03   -0.29631E-03   -0.34060E-03 23360   0.141E-01    0.239E-02
DAV:   3    -0.784338877206E+03    0.35758E-05   -0.12444E-04 28320   0.389E-02    0.155E-02
DAV:   4    -0.784338870650E+03    0.65561E-05   -0.32869E-05 26624   0.170E-02    0.535E-03
DAV:   5    -0.784338871388E+03   -0.73776E-06   -0.13488E-05 25408   0.973E-03    0.494E-03
DAV:   6    -0.784338871093E+03    0.29476E-06   -0.98699E-07 11808   0.392E-03
  29 F= -.78433887E+03 E0= -.78433887E+03  d E =-.954569E-02  mag=    -0.0000
       N       E                     dE             d eps       ncg     rms          rms(c)
DAV:   1    -0.784331266204E+03    0.76052E-02   -0.33532E+00 18144   0.399E+00    0.291E-01
DAV:   2    -0.784345512651E+03   -0.14246E-01   -0.16585E-01 23824   0.103E+00    0.177E-01
DAV:   3    -0.784345219428E+03    0.29322E-03   -0.63542E-03 28112   0.288E-01    0.118E-01
DAV:   4    -0.784344805441E+03    0.41399E-03   -0.21816E-03 27040   0.137E-01    0.411E-02
DAV:   5    -0.784344864603E+03   -0.59162E-04   -0.95983E-04 25696   0.770E-02    0.429E-02
DAV:   6    -0.784344847419E+03    0.17184E-04   -0.10649E-04 27040   0.287E-02    0.275E-02
DAV:   7    -0.784344842777E+03    0.46416E-05   -0.67803E-05 26432   0.193E-02    0.114E-02
DAV:   8    -0.784344844328E+03   -0.15502E-05   -0.15832E-05 26208   0.129E-02    0.614E-03
DAV:   9    -0.784344844496E+03   -0.16852E-06   -0.58129E-06 21792   0.684E-03
  30 F= -.78434484E+03 E0= -.78434484E+03  d E =-.597340E-02  mag=     0.0000
       N       E                     dE             d eps       ncg     rms          rms(c)
DAV:   1    -0.784344813243E+03    0.31085E-04   -0.11965E-02 18592   0.238E-01    0.175E-02
DAV:   2    -0.784344864924E+03   -0.51681E-04   -0.59360E-04 23840   0.617E-02    0.105E-02
DAV:   3    -0.784344864023E+03    0.90067E-06   -0.22310E-05 26848   0.170E-02    0.682E-03
DAV:   4    -0.784344862870E+03    0.11533E-05   -0.65482E-06 21200   0.793E-03    0.206E-03
DAV:   5    -0.784344863138E+03   -0.26770E-06   -0.26343E-06 13456   0.452E-03
  31 F= -.78434486E+03 E0= -.78434486E+03  d E =-.599204E-02  mag=     0.0000
       N       E                     dE             d eps       ncg     rms          rms(c)
DAV:   1    -0.784337210762E+03    0.76521E-02   -0.24457E+00 18256   0.347E+00    0.254E-01
DAV:   2    -0.784349318763E+03   -0.12108E-01   -0.13954E-01 23680   0.909E-01    0.147E-01
DAV:   3    -0.784349190499E+03    0.12826E-03   -0.50917E-03 28336   0.246E-01    0.988E-02
DAV:   4    -0.784348916002E+03    0.27450E-03   -0.14325E-03 26672   0.108E-01    0.322E-02
DAV:   5    -0.784348954842E+03   -0.38840E-04   -0.57953E-04 25520   0.600E-02    0.334E-02
DAV:   6    -0.784348945435E+03    0.94069E-05   -0.74066E-05 27264   0.232E-02    0.202E-02
DAV:   7    -0.784348943722E+03    0.17129E-05   -0.34875E-05 26432   0.151E-02    0.921E-03
DAV:   8    -0.784348944111E+03   -0.38869E-06   -0.93715E-06 25264   0.998E-03
  32 F= -.78434894E+03 E0= -.78434894E+03  d E =-.408097E-02  mag=     0.0000
       N       E                     dE             d eps       ncg     rms          rms(c)
DAV:   1    -0.784348939440E+03    0.42819E-05   -0.15253E-03 18880   0.871E-02    0.698E-03
DAV:   2    -0.784348946900E+03   -0.74603E-05   -0.89721E-05 23744   0.228E-02    0.373E-03
DAV:   3    -0.784348946735E+03    0.16553E-06   -0.30978E-06 17472   0.671E-03
  33 F= -.78434895E+03 E0= -.78434895E+03  d E =-.408360E-02  mag=    -0.0000
       N       E                     dE             d eps       ncg     rms          rms(c)
DAV:   1    -0.784345226753E+03    0.37201E-02   -0.14809E+00 18160   0.267E+00    0.195E-01
DAV:   2    -0.784351843159E+03   -0.66164E-02   -0.77366E-02 24064   0.697E-01    0.115E-01
DAV:   3    -0.784351761977E+03    0.81182E-04   -0.30094E-03 28160   0.189E-01    0.768E-02
DAV:   4    -0.784351601524E+03    0.16045E-03   -0.70167E-04 26800   0.748E-02    0.277E-02
DAV:   5    -0.784351614588E+03   -0.13064E-04   -0.28890E-04 25824   0.446E-02    0.233E-02
DAV:   6    -0.784351610106E+03    0.44823E-05   -0.45655E-05 26752   0.191E-02    0.138E-02
DAV:   7    -0.784351609647E+03    0.45872E-06   -0.21977E-05 25568   0.118E-02    0.665E-03
DAV:   8    -0.784351609741E+03   -0.93580E-07   -0.27501E-06 14512   0.673E-03
  34 F= -.78435161E+03 E0= -.78435161E+03  d E =-.266301E-02  mag=    -0.0000
       N       E                     dE             d eps       ncg     rms          rms(c)
DAV:   1    -0.784351607250E+03    0.23971E-05   -0.81746E-04 18928   0.628E-02    0.504E-03
DAV:   2    -0.784351610998E+03   -0.37479E-05   -0.43856E-05 24096   0.161E-02    0.250E-03
DAV:   3    -0.784351611019E+03   -0.20707E-07   -0.14082E-06 14288   0.478E-03
  35 F= -.78435161E+03 E0= -.78435161E+03  d E =-.266428E-02  mag=    -0.0000
       N       E                     dE             d eps       ncg     rms          rms(c)
DAV:   1    -0.784348844138E+03    0.27669E-02   -0.84284E-01 18160   0.209E+00    0.164E-01
DAV:   2    -0.784353185501E+03   -0.43414E-02   -0.51538E-02 23824   0.538E-01    0.943E-02
DAV:   3    -0.784353118044E+03    0.67457E-04   -0.18453E-03 28336   0.145E-01    0.570E-02
DAV:   4    -0.784353037687E+03    0.80357E-04   -0.38935E-04 26672   0.558E-02    0.196E-02
DAV:   5    -0.784353045098E+03   -0.74111E-05   -0.12410E-04 25744   0.311E-02    0.142E-02
DAV:   6    -0.784353045254E+03   -0.15575E-06   -0.22877E-05 27280   0.138E-02    0.808E-03
DAV:   7    -0.784353045923E+03   -0.66890E-06   -0.36714E-06 16224   0.731E-03
  36 F= -.78435305E+03 E0= -.78435305E+03  d E =-.143490E-02  mag=     0.0000
       N       E                     dE             d eps       ncg     rms          rms(c)
DAV:   1    -0.784353015734E+03    0.29519E-04   -0.11548E-02 18664   0.244E-01    0.191E-02
DAV:   2    -0.784353073311E+03   -0.57577E-04   -0.69770E-04 23760   0.622E-02    0.108E-02
DAV:   3    -0.784353072027E+03    0.12838E-05   -0.25592E-05 28320   0.168E-02    0.650E-03
DAV:   4    -0.784353070419E+03    0.16081E-05   -0.34400E-06 16824   0.606E-03    0.231E-03
DAV:   5    -0.784353070263E+03    0.15648E-06   -0.21129E-06 11648   0.541E-03
  37 F= -.78435307E+03 E0= -.78435307E+03  d E =-.145924E-02  mag=    -0.0000
       N       E                     dE             d eps       ncg     rms          rms(c)
DAV:   1    -0.784351979608E+03    0.10908E-02   -0.41527E-01 18192   0.146E+00    0.103E-01
DAV:   2    -0.784354004035E+03   -0.20244E-02   -0.23367E-02 23664   0.370E-01    0.608E-02
DAV:   3    -0.784353979260E+03    0.24775E-04   -0.85298E-04 28320   0.100E-01    0.393E-02
DAV:   4    -0.784353936443E+03    0.42817E-04   -0.20110E-04 26800   0.377E-02    0.134E-02
DAV:   5    -0.784353939150E+03   -0.27076E-05   -0.60986E-05 25728   0.215E-02    0.102E-02
DAV:   6    -0.784353939275E+03   -0.12485E-06   -0.14560E-05 27216   0.964E-03    0.567E-03
DAV:   7    -0.784353939312E+03   -0.37122E-07   -0.14286E-06 13088   0.509E-03
  38 F= -.78435394E+03 E0= -.78435394E+03  d E =-.869050E-03  mag=    -0.0000
       N       E                     dE             d eps       ncg     rms          rms(c)
DAV:   1    -0.784353939173E+03    0.10210E-06   -0.77970E-05 18960   0.203E-02    0.174E-03
DAV:   2    -0.784353939428E+03   -0.25516E-06   -0.33388E-06 13744   0.471E-03
  39 F= -.78435394E+03 E0= -.78435394E+03  d E =-.869166E-03  mag=    -0.0000
       N       E                     dE             d eps       ncg     rms          rms(c)
DAV:   1    -0.784353542979E+03    0.39619E-03   -0.21022E-01 18208   0.103E+00    0.768E-02
DAV:   2    -0.784354482267E+03   -0.93929E-03   -0.11133E-02 23648   0.260E-01    0.475E-02
DAV:   3    -0.784354460185E+03    0.22082E-04   -0.43329E-04 28320   0.717E-02    0.303E-02
DAV:   4    -0.784354435869E+03    0.24316E-04   -0.11426E-04 26656   0.269E-02    0.107E-02
DAV:   5    -0.784354435072E+03    0.79684E-06   -0.25429E-05 25616   0.152E-02    0.741E-03
DAV:   6    -0.784354434944E+03    0.12858E-06   -0.92093E-06 24592   0.719E-03
  40 F= -.78435443E+03 E0= -.78435443E+03  d E =-.495515E-03  mag=    -0.0000
       N       E                     dE             d eps       ncg     rms          rms(c)
DAV:   1    -0.784354434516E+03    0.55600E-06   -0.13428E-04 19552   0.263E-02    0.362E-03
DAV:   2    -0.784354435105E+03   -0.58848E-06   -0.81476E-06 19776   0.655E-03
  41 F= -.78435444E+03 E0= -.78435444E+03  d E =-.495676E-03  mag=    -0.0000
       N       E                     dE             d eps       ncg     rms          rms(c)
DAV:   1    -0.784354148130E+03    0.28639E-03   -0.12560E-01 18272   0.789E-01    0.575E-02
DAV:   2    -0.784354721394E+03   -0.57326E-03   -0.67109E-03 23888   0.202E-01    0.336E-02
DAV:   3    -0.784354713207E+03    0.81871E-05   -0.24229E-04 28152   0.546E-02    0.219E-02
DAV:   4    -0.784354700660E+03    0.12547E-04   -0.66760E-05 26976   0.219E-02    0.774E-03
DAV:   5    -0.784354701912E+03   -0.12523E-05   -0.21337E-05 25696   0.125E-02    0.657E-03
DAV:   6    -0.784354701537E+03    0.37477E-06   -0.33494E-06 15312   0.553E-03
  42 F= -.78435470E+03 E0= -.78435470E+03  d E =-.266433E-03  mag=     0.0000
       N       E                     dE             d eps       ncg     rms          rms(c)
DAV:   1    -0.784354701817E+03    0.95104E-07   -0.24347E-05 22848   0.117E-02    0.173E-03
DAV:   2    -0.784354701810E+03    0.72469E-08   -0.89976E-07 11840   0.356E-03
  43 F= -.78435470E+03 E0= -.78435470E+03  d E =-.266705E-03  mag=    -0.0000
       N       E                     dE             d eps       ncg     rms          rms(c)
DAV:   1    -0.784354497676E+03    0.20414E-03   -0.82519E-02 18400   0.649E-01    0.497E-02
DAV:   2    -0.784354897843E+03   -0.40017E-03   -0.46947E-03 23776   0.166E-01    0.282E-02
DAV:   3    -0.784354894588E+03    0.32555E-05   -0.18254E-04 28224   0.460E-02    0.185E-02
DAV:   4    -0.784354887201E+03    0.73870E-05   -0.41119E-05 26784   0.166E-02    0.700E-03
DAV:   5    -0.784354887444E+03   -0.24342E-06   -0.10712E-05 21568   0.994E-03    0.488E-03
DAV:   6    -0.784354887350E+03    0.94478E-07   -0.18284E-06 12720   0.457E-03
  44 F= -.78435489E+03 E0= -.78435489E+03  d E =-.185540E-03  mag=     0.0000
       N       E                     dE             d eps       ncg     rms          rms(c)
DAV:   1    -0.784354887429E+03    0.15090E-07   -0.48421E-05 18928   0.164E-02    0.203E-03
DAV:   2    -0.784354887685E+03   -0.25573E-06   -0.27439E-06 13952   0.431E-03
  45 F= -.78435489E+03 E0= -.78435489E+03  d E =-.185875E-03  mag=     0.0000
       N       E                     dE             d eps       ncg     rms          rms(c)
DAV:   1    -0.784354788164E+03    0.99265E-04   -0.52993E-02 18176   0.508E-01    0.370E-02
DAV:   2    -0.784355011286E+03   -0.22312E-03   -0.26129E-03 23776   0.131E-01    0.214E-02
DAV:   3    -0.784355008299E+03    0.29864E-05   -0.99927E-05 28080   0.355E-02    0.143E-02
DAV:   4    -0.784355002764E+03    0.55354E-05   -0.31639E-05 25680   0.147E-02    0.534E-03
DAV:   5    -0.784355002911E+03   -0.14749E-06   -0.87169E-06 18400   0.858E-03
  46 F= -.78435500E+03 E0= -.78435500E+03  d E =-.115227E-03  mag=     0.0000
       N       E                     dE             d eps       ncg     rms          rms(c)
DAV:   1    -0.784355003020E+03   -0.25639E-06   -0.92078E-05 19040   0.214E-02    0.317E-03
DAV:   2    -0.784355003457E+03   -0.43710E-06   -0.62154E-06 19488   0.577E-03
  47 F= -.78435500E+03 E0= -.78435500E+03  d E =-.115773E-03  mag=     0.0000
       N       E                     dE             d eps       ncg     rms          rms(c)
DAV:   1    -0.784354895043E+03    0.10798E-03   -0.37200E-02 18544   0.441E-01    0.326E-02
DAV:   2    -0.784355085188E+03   -0.19014E-03   -0.22006E-03 23536   0.111E-01    0.178E-02
DAV:   3    -0.784355083390E+03    0.17974E-05   -0.75119E-05 28448   0.302E-02    0.114E-02
DAV:   4    -0.784355079955E+03    0.34349E-05   -0.19703E-05 26000   0.120E-02    0.405E-03
DAV:   5    -0.784355080097E+03   -0.14169E-06   -0.52943E-06 16256   0.671E-03
  48 F= -.78435508E+03 E0= -.78435508E+03  d E =-.766397E-04  mag=     0.0000
       N       E                     dE             d eps       ncg     rms          rms(c)
DAV:   1    -0.784355080214E+03   -0.25863E-06   -0.37705E-05 18160   0.145E-02    0.230E-03
DAV:   2    -0.784355080395E+03   -0.18082E-06   -0.23260E-06 13072   0.390E-03
  49 F= -.78435508E+03 E0= -.78435508E+03  d E =-.769375E-04  mag=     0.0000
       N       E                     dE             d eps       ncg     rms          rms(c)
DAV:   1    -0.784354979966E+03    0.10025E-03   -0.31289E-02 18704   0.406E-01    0.299E-02
DAV:   2    -0.784355138810E+03   -0.15884E-03   -0.18345E-03 23616   0.102E-01    0.163E-02
DAV:   3    -0.784355138455E+03    0.35541E-06   -0.65217E-05 28304   0.285E-02    0.109E-02
DAV:   4    -0.784355135883E+03    0.25718E-05   -0.16592E-05 26080   0.106E-02    0.409E-03
DAV:   5    -0.784355135976E+03   -0.92859E-07   -0.37756E-06 15024   0.615E-03
  50 F= -.78435514E+03 E0= -.78435514E+03  d E =-.555810E-04  mag=     0.0000
