       N       E                     dE             d eps       ncg     rms          rms(c)
DAV:   1     0.260642554460E+04    0.26064E+04   -0.20164E+05 16176   0.139E+03
DAV:   2    -0.508921457248E+03   -0.31153E+04   -0.29020E+04 21688   0.326E+02
DAV:   3    -0.914490047291E+03   -0.40557E+03   -0.40137E+03 25304   0.144E+02
DAV:   4    -0.926500103575E+03   -0.12010E+02   -0.11940E+02 25736   0.338E+01
DAV:   5    -0.926758077438E+03   -0.25797E+00   -0.25712E+00 26192   0.476E+00    0.710E+01
DAV:   6    -0.783806396363E+03    0.14295E+03   -0.65709E+02 24736   0.498E+01    0.199E+01
DAV:   7    -0.788543814510E+03   -0.47374E+01   -0.61481E+01 24848   0.188E+01    0.130E+01
DAV:   8    -0.788011886899E+03    0.53193E+00   -0.51335E+00 24816   0.660E+00    0.764E+00
DAV:   9    -0.788034818754E+03   -0.22932E-01   -0.22746E+00 23128   0.382E+00    0.222E+00
DAV:  10    -0.788027624594E+03    0.71942E-02   -0.47897E-01 25384   0.194E+00    0.121E+00
DAV:  11    -0.788052576882E+03   -0.24952E-01   -0.13103E-01 25088   0.925E-01    0.702E-01
DAV:  12    -0.788073686417E+03   -0.21110E-01   -0.29465E-02 25168   0.499E-01    0.417E-01
DAV:  13    -0.788079495519E+03   -0.58091E-02   -0.12719E-02 24608   0.268E-01    0.243E-01
DAV:  14    -0.788082231285E+03   -0.27358E-02   -0.47661E-03 24632   0.170E-01    0.137E-01
DAV:  15    -0.788082728506E+03   -0.49722E-03   -0.16197E-03 24440   0.100E-01    0.638E-02
DAV:  16    -0.788082928341E+03   -0.19983E-03   -0.58191E-04 24360   0.551E-02    0.384E-02
DAV:  17    -0.788082950254E+03   -0.21914E-04   -0.94265E-05 24304   0.299E-02    0.181E-02
DAV:  18    -0.788082959539E+03   -0.92849E-05   -0.49539E-05 24504   0.156E-02    0.997E-03
DAV:  19    -0.788082963277E+03   -0.37384E-05   -0.13832E-05 24208   0.960E-03    0.582E-03
DAV:  20    -0.788082963824E+03   -0.54682E-06   -0.28972E-06 13248   0.558E-03
   1 F= -.78808296E+03 E0= -.78808296E+03  d E =-.788083E+03  mag=    -0.0002
       N       E                     dE             d eps       ncg     rms          rms(c)
DAV:   1    -0.774474919177E+03    0.13608E+02   -0.22055E+03 17336   0.109E+02    0.926E+00
DAV:   2    -0.789783352268E+03   -0.15308E+02   -0.18986E+02 21712   0.326E+01    0.814E+00
DAV:   3    -0.788739110062E+03    0.10442E+01   -0.80302E+00 25984   0.895E+00    0.577E+00
DAV:   4    -0.787639008793E+03    0.11001E+01   -0.41300E+00 25280   0.572E+00    0.209E+00
DAV:   5    -0.787647033833E+03   -0.80250E-02   -0.16630E+00 23648   0.345E+00    0.188E+00
DAV:   6    -0.787621940996E+03    0.25093E-01   -0.63203E-01 23496   0.184E+00    0.966E-01
DAV:   7    -0.787621409024E+03    0.53197E-03   -0.15962E-01 24544   0.100E+00    0.438E-01
DAV:   8    -0.787619836302E+03    0.15727E-02   -0.25038E-02 24264   0.473E-01    0.230E-01
DAV:   9    -0.787620800596E+03   -0.96429E-03   -0.13040E-02 26560   0.356E-01    0.157E-01
DAV:  10    -0.787621743543E+03   -0.94295E-03   -0.69500E-03 24584   0.233E-01    0.125E-01
DAV:  11    -0.787621684489E+03    0.59054E-04   -0.12392E-03 24320   0.105E-01    0.632E-02
DAV:  12    -0.787621808586E+03   -0.12410E-03   -0.90617E-04 25472   0.798E-02    0.309E-02
DAV:  13    -0.787621907506E+03   -0.98921E-04   -0.26022E-04 21408   0.607E-02    0.245E-02
DAV:  14    -0.787621925216E+03   -0.17710E-04   -0.10148E-04 25216   0.292E-02    0.113E-02
DAV:  15    -0.787621940826E+03   -0.15609E-04   -0.46993E-05 22120   0.225E-02    0.678E-03
DAV:  16    -0.787621949477E+03   -0.86512E-05   -0.32191E-05 19592   0.197E-02    0.425E-03
DAV:  17    -0.787621950939E+03   -0.14627E-05   -0.67798E-06 17008   0.882E-03    0.239E-03
DAV:  18    -0.787621951272E+03   -0.33301E-06   -0.20124E-06 13464   0.515E-03
   2 F= -.78762195E+03 E0= -.78762195E+03  d E =0.461013E+00  mag=     0.0000
       N       E                     dE             d eps       ncg     rms          rms(c)
DAV:   1    -0.790605670017E+03   -0.29837E+01   -0.56102E+02 16568   0.562E+01    0.532E+00
DAV:   2    -0.793933918903E+03   -0.33282E+01   -0.45859E+01 21760   0.160E+01    0.409E+00
DAV:   3    -0.793684691026E+03    0.24923E+00   -0.24347E+00 24824   0.475E+00    0.298E+00
DAV:   4    -0.793447212997E+03    0.23748E+00   -0.11616E+00 25000   0.284E+00    0.121E+00
DAV:   5    -0.793433353920E+03    0.13859E-01   -0.35929E-01 23480   0.181E+00    0.101E+00
DAV:   6    -0.793427004163E+03    0.63498E-02   -0.18039E-01 22832   0.964E-01    0.486E-01
DAV:   7    -0.793428197727E+03   -0.11936E-02   -0.57488E-02 24784   0.616E-01    0.218E-01
DAV:   8    -0.793428159415E+03    0.38312E-04   -0.40079E-03 24024   0.259E-01    0.142E-01
DAV:   9    -0.793428550239E+03   -0.39082E-03   -0.53437E-03 25160   0.210E-01    0.734E-02
DAV:  10    -0.793428699775E+03   -0.14954E-03   -0.12673E-03 22344   0.112E-01    0.332E-02
DAV:  11    -0.793428756194E+03   -0.56419E-04   -0.37252E-04 24816   0.478E-02    0.222E-02
DAV:  12    -0.793428772481E+03   -0.16287E-04   -0.60200E-05 24232   0.302E-02    0.104E-02
DAV:  13    -0.793428776909E+03   -0.44276E-05   -0.30134E-05 24512   0.150E-02    0.609E-03
DAV:  14    -0.793428778085E+03   -0.11755E-05   -0.71495E-06 20360   0.757E-03    0.421E-03
DAV:  15    -0.793428778330E+03   -0.24564E-06   -0.12022E-06 11648   0.440E-03
   3 F= -.79342878E+03 E0= -.79342878E+03  d E =-.534581E+01  mag=     0.0000
       N       E                     dE             d eps       ncg     rms          rms(c)
DAV:   1    -0.790571633445E+03    0.28571E+01   -0.45023E+02 16672   0.487E+01    0.409E+00
DAV:   2    -0.793721480092E+03   -0.31498E+01   -0.37326E+01 22976   0.145E+01    0.319E+00
DAV:   3    -0.793625137965E+03    0.96342E-01   -0.13027E+00 25344   0.334E+00    0.207E+00
DAV:   4    -0.793543087273E+03    0.82051E-01   -0.51956E-01 24776   0.195E+00    0.789E-01
DAV:   5    -0.793540270003E+03    0.28173E-02   -0.10951E-01 24016   0.925E-01    0.461E-01
DAV:   6    -0.793540532357E+03   -0.26235E-03   -0.34826E-02 24552   0.528E-01    0.225E-01
DAV:   7    -0.793541813875E+03   -0.12815E-02   -0.94325E-03 24136   0.276E-01    0.146E-01
DAV:   8    -0.793542215890E+03   -0.40201E-03   -0.17425E-03 24632   0.148E-01    0.709E-02
DAV:   9    -0.793542420647E+03   -0.20476E-03   -0.63870E-04 25256   0.958E-02    0.346E-02
DAV:  10    -0.793542458624E+03   -0.37977E-04   -0.12395E-04 24416   0.394E-02    0.214E-02
DAV:  11    -0.793542465871E+03   -0.72473E-05   -0.89796E-05 24872   0.265E-02    0.101E-02
DAV:  12    -0.793542468922E+03   -0.30510E-05   -0.21973E-05 24120   0.133E-02    0.801E-03
DAV:  13    -0.793542469302E+03   -0.37981E-06   -0.51157E-06 18184   0.754E-03
   4 F= -.79354247E+03 E0= -.79354247E+03  d E =-.113691E+00  mag=     0.0000
       N       E                     dE             d eps       ncg     rms          rms(c)
DAV:   1    -0.793451118670E+03    0.91350E-01   -0.11549E+02 17456   0.243E+01    0.206E+00
DAV:   2    -0.794296527508E+03   -0.84541E+00   -0.10091E+01 20920   0.694E+00    0.148E+00
DAV:   3    -0.794280327556E+03    0.16200E-01   -0.39005E-01 24056   0.175E+00    0.104E+00
DAV:   4    -0.794254790800E+03    0.25537E-01   -0.15709E-01 24352   0.991E-01    0.357E-01
DAV:   5    -0.794255133818E+03   -0.34302E-03   -0.37154E-02 23376   0.491E-01    0.286E-01
DAV:   6    -0.794254253901E+03    0.87992E-03   -0.92582E-03 24848   0.248E-01    0.138E-01
DAV:   7    -0.794254440470E+03   -0.18657E-03   -0.35685E-03 24272   0.144E-01    0.675E-02
DAV:   8    -0.794254485226E+03   -0.44757E-04   -0.44568E-04 25296   0.734E-02    0.359E-02
DAV:   9    -0.794254511548E+03   -0.26322E-04   -0.17630E-04 24576   0.426E-02    0.197E-02
DAV:  10    -0.794254518187E+03   -0.66382E-05   -0.43719E-05 24224   0.240E-02    0.933E-03
DAV:  11    -0.794254520172E+03   -0.19851E-05   -0.24647E-05 24744   0.133E-02    0.546E-03
DAV:  12    -0.794254520522E+03   -0.35066E-06   -0.41332E-06 15264   0.697E-03
   5 F= -.79425452E+03 E0= -.79425452E+03  d E =-.825742E+00  mag=     0.0000
       N       E                     dE             d eps       ncg     rms          rms(c)
DAV:   1    -0.794422697764E+03   -0.16818E+00   -0.10874E+02 16576   0.220E+01    0.191E+00
DAV:   2    -0.794705228956E+03   -0.28253E+00   -0.41381E+00 23088   0.585E+00    0.135E+00
DAV:   3    -0.794666034136E+03    0.39195E-01   -0.19339E-01 24352   0.153E+00    0.892E-01
DAV:   4    -0.794642366650E+03    0.23667E-01   -0.12773E-01 25104   0.958E-01    0.332E-01
DAV:   5    -0.794642893548E+03   -0.52690E-03   -0.38399E-02 23432   0.509E-01    0.302E-01
DAV:   6    -0.794641846909E+03    0.10466E-02   -0.12288E-02 24472   0.264E-01    0.134E-01
DAV:   7    -0.794641826516E+03    0.20393E-04   -0.31058E-03 24416   0.140E-01    0.533E-02
DAV:   8    -0.794641840888E+03   -0.14372E-04   -0.35615E-04 24288   0.687E-02    0.281E-02
DAV:   9    -0.794641846819E+03   -0.59305E-05   -0.15195E-04 24760   0.367E-02    0.173E-02
DAV:  10    -0.794641847538E+03   -0.71931E-06   -0.45453E-05 23616   0.199E-02    0.888E-03
DAV:  11    -0.794641848587E+03   -0.10488E-05   -0.19954E-05 24384   0.985E-03    0.488E-03
DAV:  12    -0.794641848481E+03    0.10541E-06   -0.14268E-06 11736   0.511E-03
   6 F= -.79464185E+03 E0= -.79464185E+03  d E =-.387328E+00  mag=     0.0000
       N       E                     dE             d eps       ncg     rms          rms(c)
DAV:   1    -0.794642657331E+03   -0.80874E-03   -0.38479E-01 17024   0.131E+00    0.111E-01
DAV:   2    -0.794643674176E+03   -0.10168E-02   -0.14715E-02 23504   0.350E-01    0.818E-02
DAV:   3    -0.794643528219E+03    0.14596E-03   -0.65317E-04 24696   0.881E-02    0.541E-02
DAV:   4    -0.794643438898E+03    0.89321E-04   -0.45542E-04 25072   0.576E-02    0.196E-02
DAV:   5    -0.794643440762E+03   -0.18639E-05   -0.14391E-04 23168   0.306E-02    0.182E-02
DAV:   6    -0.794643436548E+03    0.42142E-05   -0.41859E-05 24672   0.157E-02    0.834E-03
DAV:   7    -0.794643436071E+03    0.47743E-06   -0.11156E-05 22392   0.856E-03    0.327E-03
DAV:   8    -0.794643435916E+03    0.15445E-06   -0.13829E-06 11064   0.476E-03
   7 F= -.79464344E+03 E0= -.79464344E+03  d E =-.388915E+00  mag=    -0.0000
       N       E                     dE             d eps       ncg     rms          rms(c)
DAV:   1    -0.794578441146E+03    0.64995E-01   -0.38273E+01 17456   0.144E+01    0.113E+00
DAV:   2    -0.794801707177E+03   -0.22327E+00   -0.26988E+00 21328   0.363E+00    0.702E-01
DAV:   3    -0.794796461244E+03    0.52459E-02   -0.97390E-02 25120   0.922E-01    0.477E-01
DAV:   4    -0.794790523904E+03    0.59373E-02   -0.29939E-02 23336   0.446E-01    0.169E-01
DAV:   5    -0.794790555093E+03   -0.31189E-04   -0.79201E-03 22832   0.241E-01    0.136E-01
DAV:   6    -0.794790405822E+03    0.14927E-03   -0.29566E-03 24600   0.130E-01    0.595E-02
DAV:   7    -0.794790434931E+03   -0.29110E-04   -0.58033E-04 24032   0.652E-02    0.291E-02
DAV:   8    -0.794790435373E+03   -0.44120E-06   -0.56470E-05 24800   0.299E-02    0.131E-02
DAV:   9    -0.794790438108E+03   -0.27357E-05   -0.32007E-05 25992   0.182E-02    0.581E-03
DAV:  10    -0.794790438967E+03   -0.85824E-06   -0.88583E-06 20008   0.833E-03
   8 F= -.79479044E+03 E0= -.79479044E+03  d E =-.147003E+00  mag=     0.0000
       N       E                     dE             d eps       ncg     rms          rms(c)
DAV:   1    -0.794790068633E+03    0.36948E-03   -0.17052E-01 17800   0.965E-01    0.759E-02
DAV:   2    -0.794791073188E+03   -0.10046E-02   -0.12151E-02 21664   0.244E-01    0.472E-02
DAV:   3    -0.794791049445E+03    0.23743E-04   -0.43118E-04 25024   0.614E-02    0.317E-02
DAV:   4    -0.794791023819E+03    0.25626E-04   -0.12892E-04 23744   0.299E-02    0.111E-02
DAV:   5    -0.794791024099E+03   -0.27964E-06   -0.35002E-05 22832   0.159E-02    0.880E-03
DAV:   6    -0.794791023616E+03    0.48307E-06   -0.12969E-05 23632   0.859E-03    0.395E-03
DAV:   7    -0.794791023633E+03   -0.17229E-07   -0.18541E-06 11920   0.436E-03
   9 F= -.79479102E+03 E0= -.79479102E+03  d E =-.147588E+00  mag=     0.0000
       N       E                     dE             d eps       ncg     rms          rms(c)
DAV:   1    -0.794764265800E+03    0.26758E-01   -0.15084E+01 17016   0.920E+00    0.782E-01
DAV:   2    -0.794853875287E+03   -0.89609E-01   -0.11042E+00 22288   0.236E+00    0.482E-01
DAV:   3    -0.794851454904E+03    0.24204E-02   -0.39394E-02 25448   0.604E-01    0.295E-01
DAV:   4    -0.794849661584E+03    0.17933E-02   -0.12004E-02 24616   0.267E-01    0.110E-01
DAV:   5    -0.794849553814E+03    0.10777E-03   -0.20853E-03 23648   0.137E-01    0.716E-02
DAV:   6    -0.794849570601E+03   -0.16787E-04   -0.11260E-03 25352   0.762E-02    0.348E-02
DAV:   7    -0.794849572603E+03   -0.20024E-05   -0.13401E-04 24400   0.373E-02    0.207E-02
DAV:   8    -0.794849575021E+03   -0.24182E-05   -0.53258E-05 25112   0.193E-02    0.801E-03
DAV:   9    -0.794849574973E+03    0.48018E-07   -0.56751E-06 19112   0.883E-03
  10 F= -.79484957E+03 E0= -.79484957E+03  d E =-.585513E-01  mag=    -0.0000
       N       E                     dE             d eps       ncg     rms          rms(c)
DAV:   1    -0.794849536593E+03    0.38428E-04   -0.19464E-02 17664   0.331E-01    0.280E-02
DAV:   2    -0.794849653814E+03   -0.11722E-03   -0.14564E-03 22104   0.853E-02    0.177E-02
DAV:   3    -0.794849650279E+03    0.35353E-05   -0.52456E-05 25304   0.224E-02    0.113E-02
DAV:   4    -0.794849647365E+03    0.29132E-05   -0.18964E-05 24608   0.106E-02    0.436E-03
DAV:   5    -0.794849646965E+03    0.40042E-06   -0.28631E-06 13824   0.541E-03
  11 F= -.79484965E+03 E0= -.79484965E+03  d E =-.586233E-01  mag=    -0.0000
       N       E                     dE             d eps       ncg     rms          rms(c)
DAV:   1    -0.794839933957E+03    0.97134E-02   -0.10347E+01 16600   0.721E+00    0.535E-01
DAV:   2    -0.794880117778E+03   -0.40184E-01   -0.51171E-01 23312   0.184E+00    0.341E-01
DAV:   3    -0.794878344562E+03    0.17732E-02   -0.20329E-02 25320   0.452E-01    0.227E-01
DAV:   4    -0.794877000195E+03    0.13444E-02   -0.64726E-03 24568   0.202E-01    0.882E-02
DAV:   5    -0.794876934047E+03    0.66148E-04   -0.15163E-03 23336   0.111E-01    0.581E-02
DAV:   6    -0.794876927442E+03    0.66054E-05   -0.66472E-04 23968   0.587E-02    0.293E-02
DAV:   7    -0.794876930446E+03   -0.30040E-05   -0.12289E-04 23976   0.298E-02    0.167E-02
DAV:   8    -0.794876930825E+03   -0.37897E-06   -0.27969E-05 24152   0.157E-02    0.679E-03
DAV:   9    -0.794876931509E+03   -0.68411E-06   -0.98974E-06 23504   0.851E-03
  12 F= -.79487693E+03 E0= -.79487693E+03  d E =-.272845E-01  mag=    -0.0000
       N       E                     dE             d eps       ncg     rms          rms(c)
DAV:   1    -0.794876920749E+03    0.10076E-04   -0.22503E-02 17040   0.336E-01    0.250E-02
DAV:   2    -0.794877006270E+03   -0.85521E-04   -0.10941E-03 23248   0.852E-02    0.157E-02
DAV:   3    -0.794877001950E+03    0.43197E-05   -0.41925E-05 25344   0.204E-02    0.101E-02
DAV:   4    -0.794876998899E+03    0.30512E-05   -0.13172E-05 23896   0.901E-03    0.377E-03
DAV:   5    -0.794876998722E+03    0.17701E-06   -0.25061E-06 14096   0.481E-03
  13 F= -.79487700E+03 E0= -.79487700E+03  d E =-.273518E-01  mag=     0.0000
       N       E                     dE             d eps       ncg     rms          rms(c)
DAV:   1    -0.794869691068E+03    0.73078E-02   -0.56797E+00 16800   0.544E+00    0.434E-01
DAV:   2    -0.794896892553E+03   -0.27201E-01   -0.33225E-01 23120   0.139E+00    0.276E-01
DAV:   3    -0.794895848682E+03    0.10439E-02   -0.10130E-02 25464   0.339E-01    0.167E-01
DAV:   4    -0.794895258859E+03    0.58982E-03   -0.40515E-03 24680   0.162E-01    0.607E-02
DAV:   5    -0.794895266812E+03   -0.79534E-05   -0.79597E-04 24040   0.775E-02    0.419E-02
DAV:   6    -0.794895275193E+03   -0.83811E-05   -0.31563E-04 25448   0.428E-02    0.199E-02
DAV:   7    -0.794895276854E+03   -0.16604E-05   -0.38321E-05 23952   0.199E-02    0.129E-02
DAV:   8    -0.794895279351E+03   -0.24977E-05   -0.20728E-05 23888   0.123E-02    0.487E-03
DAV:   9    -0.794895279677E+03   -0.32558E-06   -0.21682E-06 13304   0.551E-03
  14 F= -.79489528E+03 E0= -.79489528E+03  d E =-.182810E-01  mag=     0.0000
       N       E                     dE             d eps       ncg     rms          rms(c)
DAV:   1    -0.794895118332E+03    0.16102E-03   -0.82373E-02 17200   0.655E-01    0.520E-02
DAV:   2    -0.794895519326E+03   -0.40099E-03   -0.48667E-03 23120   0.168E-01    0.338E-02
DAV:   3    -0.794895504095E+03    0.15232E-04   -0.14715E-04 25184   0.411E-02    0.207E-02
DAV:   4    -0.794895495249E+03    0.88458E-05   -0.64722E-05 24624   0.204E-02    0.761E-03
DAV:   5    -0.794895495519E+03   -0.27052E-06   -0.12432E-05 21656   0.981E-03    0.529E-03
DAV:   6    -0.794895495599E+03   -0.79479E-07   -0.42642E-06 16128   0.544E-03
  15 F= -.79489550E+03 E0= -.79489550E+03  d E =-.184969E-01  mag=     0.0000
       N       E                     dE             d eps       ncg     rms          rms(c)
DAV:   1    -0.794874017525E+03    0.21478E-01   -0.45774E+00 17248   0.511E+00    0.396E-01
DAV:   2    -0.794905008631E+03   -0.30991E-01   -0.36505E-01 21416   0.132E+00    0.229E-01
DAV:   3    -0.794905056779E+03   -0.48148E-04   -0.12974E-02 25608   0.331E-01    0.158E-01
DAV:   4    -0.794904602550E+03    0.45423E-03   -0.31341E-03 25072   0.148E-01    0.611E-02
DAV:   5    -0.794904610681E+03   -0.81319E-05   -0.73870E-04 23784   0.788E-02    0.428E-02
DAV:   6    -0.794904610011E+03    0.67083E-06   -0.29613E-04 25256   0.407E-02    0.204E-02
DAV:   7    -0.794904613865E+03   -0.38547E-05   -0.47960E-05 24200   0.207E-02    0.114E-02
DAV:   8    -0.794904615672E+03   -0.18065E-05   -0.10848E-05 24128   0.116E-02    0.427E-03
DAV:   9    -0.794904616248E+03   -0.57661E-06   -0.22125E-06 14032   0.602E-03
  16 F= -.79490462E+03 E0= -.79490462E+03  d E =-.912065E-02  mag=     0.0000
       N       E                     dE             d eps       ncg     rms          rms(c)
DAV:   1    -0.794904333849E+03    0.28182E-03   -0.69123E-02 17464   0.628E-01    0.488E-02
DAV:   2    -0.794904805973E+03   -0.47212E-03   -0.55624E-03 21384   0.162E-01    0.285E-02
DAV:   3    -0.794904805130E+03    0.84324E-06   -0.19276E-04 25520   0.405E-02    0.194E-02
DAV:   4    -0.794904797989E+03    0.71410E-05   -0.48730E-05 25048   0.183E-02    0.746E-03
DAV:   5    -0.794904797865E+03    0.12322E-06   -0.10721E-05 19904   0.960E-03    0.506E-03
DAV:   6    -0.794904797831E+03    0.34233E-07   -0.39912E-06 16360   0.499E-03
  17 F= -.79490480E+03 E0= -.79490480E+03  d E =-.930223E-02  mag=    -0.0000
       N       E                     dE             d eps       ncg     rms          rms(c)
DAV:   1    -0.794895720750E+03    0.90771E-02   -0.27473E+00 17200   0.394E+00    0.285E-01
DAV:   2    -0.794912266307E+03   -0.16546E-01   -0.19102E-01 21888   0.978E-01    0.166E-01
DAV:   3    -0.794912148545E+03    0.11776E-03   -0.60047E-03 25744   0.239E-01    0.112E-01
DAV:   4    -0.794911875944E+03    0.27260E-03   -0.16455E-03 24624   0.109E-01    0.410E-02
DAV:   5    -0.794911889767E+03   -0.13823E-04   -0.44841E-04 23328   0.556E-02    0.329E-02
DAV:   6    -0.794911883592E+03    0.61750E-05   -0.14063E-04 25216   0.284E-02    0.156E-02
DAV:   7    -0.794911884801E+03   -0.12089E-05   -0.21470E-05 24400   0.138E-02    0.851E-03
DAV:   8    -0.794911885002E+03   -0.20092E-06   -0.35586E-06 16424   0.778E-03
  18 F= -.79491189E+03 E0= -.79491189E+03  d E =-.708717E-02  mag=     0.0000
       N       E                     dE             d eps       ncg     rms          rms(c)
DAV:   1    -0.794911614260E+03    0.27054E-03   -0.70483E-02 17576   0.631E-01    0.456E-02
DAV:   2    -0.794912039078E+03   -0.42482E-03   -0.49048E-03 21768   0.157E-01    0.268E-02
DAV:   3    -0.794912036113E+03    0.29650E-05   -0.15458E-04 25808   0.383E-02    0.181E-02
DAV:   4    -0.794912028748E+03    0.73651E-05   -0.42502E-05 24656   0.177E-02    0.658E-03
DAV:   5    -0.794912029075E+03   -0.32676E-06   -0.11445E-05 19984   0.900E-03    0.514E-03
DAV:   6    -0.794912028825E+03    0.25013E-06   -0.28041E-06 13856   0.463E-03
  19 F= -.79491203E+03 E0= -.79491203E+03  d E =-.723099E-02  mag=     0.0000
       N       E                     dE             d eps       ncg     rms          rms(c)
DAV:   1    -0.794910271308E+03    0.17578E-02   -0.13575E+00 16696   0.265E+00    0.191E-01
DAV:   2    -0.794916131487E+03   -0.58602E-02   -0.69988E-02 23056   0.665E-01    0.116E-01
DAV:   3    -0.794915958964E+03    0.17252E-03   -0.21568E-03 25808   0.156E-01    0.756E-02
DAV:   4    -0.794915815241E+03    0.14372E-03   -0.80625E-04 24736   0.749E-02    0.271E-02
DAV:   5    -0.794915823137E+03   -0.78961E-05   -0.21764E-04 23424   0.384E-02    0.227E-02
DAV:   6    -0.794915819583E+03    0.35540E-05   -0.68240E-05 25776   0.195E-02    0.104E-02
DAV:   7    -0.794915819964E+03   -0.38026E-06   -0.10406E-05 22232   0.952E-03    0.561E-03
DAV:   8    -0.794915820247E+03   -0.28312E-06   -0.17903E-06 11616   0.508E-03
  20 F= -.79491582E+03 E0= -.79491582E+03  d E =-.379142E-02  mag=     0.0000
       N       E                     dE             d eps       ncg     rms          rms(c)
DAV:   1    -0.794915635820E+03    0.18414E-03   -0.83594E-02 16864   0.657E-01    0.471E-02
DAV:   2    -0.794915997692E+03   -0.36187E-03   -0.43154E-03 23056   0.165E-01    0.288E-02
DAV:   3    -0.794915987229E+03    0.10463E-04   -0.13347E-04 25776   0.387E-02    0.188E-02
DAV:   4    -0.794915978286E+03    0.89425E-05   -0.48226E-05 24792   0.184E-02    0.669E-03
DAV:   5    -0.794915978811E+03   -0.52479E-06   -0.13040E-05 20336   0.949E-03    0.544E-03
DAV:   6    -0.794915978572E+03    0.23954E-06   -0.33478E-06 14712   0.480E-03
  21 F= -.79491598E+03 E0= -.79491598E+03  d E =-.394975E-02  mag=     0.0000
       N       E                     dE             d eps       ncg     rms          rms(c)
DAV:   1    -0.794912448060E+03    0.35308E-02   -0.62190E-01 17608   0.193E+00    0.164E-01
DAV:   2    -0.794917502847E+03   -0.50548E-02   -0.60010E-02 19800   0.504E-01    0.849E-02
DAV:   3    -0.794917564921E+03   -0.62074E-04   -0.22743E-03 25760   0.123E-01    0.587E-02
DAV:   4    -0.794917502869E+03    0.62052E-04   -0.38117E-04 24480   0.526E-02    0.217E-02
DAV:   5    -0.794917506118E+03   -0.32488E-05   -0.10378E-04 23120   0.282E-02    0.161E-02
DAV:   6    -0.794917505116E+03    0.10019E-05   -0.35627E-05 24752   0.143E-02    0.763E-03
DAV:   7    -0.794917505691E+03   -0.57516E-06   -0.83720E-06 20536   0.794E-03
  22 F= -.79491751E+03 E0= -.79491751E+03  d E =-.152712E-02  mag=     0.0000
       N       E                     dE             d eps       ncg     rms          rms(c)
DAV:   1    -0.794917500177E+03    0.49391E-05   -0.12373E-03 17888   0.861E-02    0.728E-03
DAV:   2    -0.794917509703E+03   -0.95262E-05   -0.11807E-04 19696   0.222E-02    0.354E-03
DAV:   3    -0.794917509701E+03    0.16626E-08   -0.41984E-06 15912   0.553E-03
  23 F= -.79491751E+03 E0= -.79491751E+03  d E =-.153113E-02  mag=     0.0000
       N       E                     dE             d eps       ncg     rms          rms(c)
DAV:   1    -0.794915296236E+03    0.22135E-02   -0.55387E-01 17280   0.172E+00    0.137E-01
DAV:   2    -0.794918538357E+03   -0.32421E-02   -0.38783E-02 22832   0.447E-01    0.830E-02
DAV:   3    -0.794918490012E+03    0.48345E-04   -0.12807E-03 25008   0.107E-01    0.561E-02
DAV:   4    -0.794918424759E+03    0.65253E-04   -0.36023E-04 25200   0.505E-02    0.220E-02
DAV:   5    -0.794918424894E+03   -0.13482E-06   -0.90886E-05 24528   0.263E-02    0.137E-02
DAV:   6    -0.794918425009E+03   -0.11532E-06   -0.27926E-05 24464   0.133E-02    0.718E-03
DAV:   7    -0.794918425356E+03   -0.34640E-06   -0.46592E-06 16552   0.639E-03
  24 F= -.79491843E+03 E0= -.79491843E+03  d E =-.915655E-03  mag=     0.0000
       N       E                     dE             d eps       ncg     rms          rms(c)
DAV:   1    -0.794918375495E+03    0.49514E-04   -0.15823E-02 17544   0.290E-01    0.231E-02
DAV:   2    -0.794918467386E+03   -0.91891E-04   -0.10996E-03 22560   0.747E-02    0.137E-02
DAV:   3    -0.794918466129E+03    0.12566E-05   -0.37349E-05 24912   0.181E-02    0.939E-03
DAV:   4    -0.794918464422E+03    0.17068E-05   -0.93140E-06 22960   0.813E-03    0.362E-03
DAV:   5    -0.794918464406E+03    0.16025E-07   -0.21751E-06 13456   0.459E-03
  25 F= -.79491846E+03 E0= -.79491846E+03  d E =-.954705E-03  mag=     0.0000
       N       E                     dE             d eps       ncg     rms          rms(c)
DAV:   1    -0.794917445757E+03    0.10187E-02   -0.24900E-01 17400   0.120E+00    0.105E-01
DAV:   2    -0.794919288508E+03   -0.18428E-02   -0.22028E-02 21168   0.313E-01    0.576E-02
DAV:   3    -0.794919271378E+03    0.17130E-04   -0.72580E-04 25776   0.747E-02    0.370E-02
DAV:   4    -0.794919239972E+03    0.31406E-04   -0.15189E-04 24592   0.340E-02    0.129E-02
DAV:   5    -0.794919241020E+03   -0.10481E-05   -0.43285E-05 23440   0.177E-02    0.969E-03
DAV:   6    -0.794919240236E+03    0.78429E-06   -0.11792E-05 23872   0.856E-03    0.488E-03
DAV:   7    -0.794919240164E+03    0.71737E-07   -0.19005E-06 12456   0.459E-03
  26 F= -.79491924E+03 E0= -.79491924E+03  d E =-.775758E-03  mag=     0.0000
       N       E                     dE             d eps       ncg     rms          rms(c)
DAV:   1    -0.794919201880E+03    0.38356E-04   -0.78323E-03 17760   0.213E-01    0.188E-02
DAV:   2    -0.794919260367E+03   -0.58488E-04   -0.69989E-04 21464   0.559E-02    0.105E-02
DAV:   3    -0.794919259734E+03    0.63386E-06   -0.22756E-05 24064   0.134E-02    0.665E-03
DAV:   4    -0.794919258538E+03    0.11959E-05   -0.36369E-06 15648   0.616E-03    0.216E-03
DAV:   5    -0.794919258611E+03   -0.73764E-07   -0.16993E-06 11952   0.511E-03
  27 F= -.79491926E+03 E0= -.79491926E+03  d E =-.794205E-03  mag=     0.0000
       N       E                     dE             d eps       ncg     rms          rms(c)
DAV:   1    -0.794919039238E+03    0.21930E-03   -0.12914E-01 16856   0.826E-01    0.629E-02
DAV:   2    -0.794919724326E+03   -0.68509E-03   -0.81143E-03 22544   0.213E-01    0.368E-02
DAV:   3    -0.794919712213E+03    0.12113E-04   -0.27191E-04 25840   0.512E-02    0.242E-02
DAV:   4    -0.794919699512E+03    0.12701E-04   -0.68917E-05 24008   0.219E-02    0.917E-03
DAV:   5    -0.794919699993E+03   -0.48136E-06   -0.19005E-05 23952   0.121E-02    0.663E-03
DAV:   6    -0.794919699810E+03    0.18285E-06   -0.57454E-06 18720   0.619E-03
  28 F= -.79491970E+03 E0= -.79491970E+03  d E =-.441199E-03  mag=    -0.0000
       N       E                     dE             d eps       ncg     rms          rms(c)
DAV:   1    -0.794919679790E+03    0.20203E-04   -0.75297E-03 17064   0.199E-01    0.157E-02
DAV:   2    -0.794919720925E+03   -0.41135E-04   -0.47895E-04 22400   0.516E-02    0.923E-03
DAV:   3    -0.794919720218E+03    0.70659E-06   -0.15240E-05 23048   0.126E-02    0.601E-03
DAV:   4    -0.794919719609E+03    0.60957E-06   -0.45218E-06 17832   0.608E-03
  29 F= -.79491972E+03 E0= -.79491972E+03  d E =-.460997E-03  mag=    -0.0000
       N       E                     dE             d eps       ncg     rms          rms(c)
DAV:   1    -0.794919491190E+03    0.22903E-03   -0.78816E-02 17208   0.650E-01    0.477E-02
DAV:   2    -0.794919934128E+03   -0.44294E-03   -0.51846E-03 22320   0.164E-01    0.297E-02
DAV:   3    -0.794919923928E+03    0.10201E-04   -0.15865E-04 25608   0.400E-02    0.198E-02
DAV:   4    -0.794919913751E+03    0.10176E-04   -0.55164E-05 24096   0.193E-02    0.693E-03
DAV:   5    -0.794919914241E+03   -0.48989E-06   -0.14886E-05 21288   0.978E-03    0.562E-03
DAV:   6    -0.794919913943E+03    0.29801E-06   -0.26137E-06 13600   0.471E-03
  30 F= -.79491991E+03 E0= -.79491991E+03  d E =-.194334E-03  mag=    -0.0000
       N       E                     dE             d eps       ncg     rms          rms(c)
DAV:   1    -0.794919913907E+03    0.33350E-06   -0.36480E-05 16760   0.145E-02    0.136E-03
DAV:   2    -0.794919914063E+03   -0.15507E-06   -0.20503E-06 10512   0.376E-03
  31 F= -.79491991E+03 E0= -.79491991E+03  d E =-.194454E-03  mag=    -0.0000
       N       E                     dE             d eps       ncg     rms          rms(c)
DAV:   1    -0.794919590606E+03    0.32330E-03   -0.69055E-02 17376   0.607E-01    0.477E-02
DAV:   2    -0.794920026608E+03   -0.43600E-03   -0.51482E-03 21552   0.158E-01    0.277E-02
DAV:   3    -0.794920023208E+03    0.33993E-05   -0.17984E-04 25552   0.379E-02    0.189E-02
DAV:   4    -0.794920015403E+03    0.78053E-05   -0.49729E-05 24432   0.185E-02    0.701E-03
DAV:   5    -0.794920015642E+03   -0.23918E-06   -0.12823E-05 19920   0.969E-03    0.558E-03
DAV:   6    -0.794920015363E+03    0.27971E-06   -0.33576E-06 15072   0.475E-03
  32 F= -.79492002E+03 E0= -.79492002E+03  d E =-.101300E-03  mag=    -0.0000
       N       E                     dE             d eps       ncg     rms          rms(c)
DAV:   1    -0.794920003698E+03    0.11945E-04   -0.34685E-03 17616   0.136E-01    0.106E-02
DAV:   2    -0.794920025150E+03   -0.21452E-04   -0.25550E-04 21440   0.353E-02    0.589E-03
DAV:   3    -0.794920025024E+03    0.12516E-06   -0.90868E-06 20264   0.838E-03
  33 F= -.79492003E+03 E0= -.79492003E+03  d E =-.110962E-03  mag=     0.0000
       N       E                     dE             d eps       ncg     rms          rms(c)
DAV:   1    -0.794919996537E+03    0.28613E-04   -0.31889E-02 16656   0.390E-01    0.273E-02
DAV:   2    -0.794920108904E+03   -0.11237E-03   -0.13510E-03 23408   0.102E-01    0.179E-02
DAV:   3    -0.794920104700E+03    0.42040E-05   -0.49807E-05 25400   0.233E-02    0.121E-02
DAV:   4    -0.794920100695E+03    0.40052E-05   -0.17881E-05 24936   0.112E-02    0.446E-03
DAV:   5    -0.794920100683E+03    0.12245E-07   -0.42612E-06 14912   0.590E-03
  34 F= -.79492010E+03 E0= -.79492010E+03  d E =-.756581E-04  mag=     0.0000
       N       E                     dE             d eps       ncg     rms          rms(c)
DAV:   1    -0.794920100556E+03    0.13836E-06   -0.36327E-05 17200   0.140E-02    0.220E-03
DAV:   2    -0.794920100684E+03   -0.12734E-06   -0.19461E-06 11264   0.378E-03
  35 F= -.79492010E+03 E0= -.79492010E+03  d E =-.756594E-04  mag=     0.0000
       N       E                     dE             d eps       ncg     rms          rms(c)
DAV:   1    -0.794920081745E+03    0.18811E-04   -0.15289E-02 16904   0.278E-01    0.209E-02
DAV:   2    -0.794920153527E+03   -0.71782E-04   -0.83551E-04 22688   0.710E-02    0.126E-02
DAV:   3    -0.794920151626E+03    0.19012E-05   -0.26475E-05 24784   0.169E-02    0.799E-03
DAV:   4    -0.794920150104E+03    0.15217E-05   -0.88695E-06 20624   0.827E-03    0.260E-03
DAV:   5    -0.794920150327E+03   -0.22234E-06   -0.27799E-06 12704   0.456E-03
  36 F= -.79492015E+03 E0= -.79492015E+03  d E =-.496430E-04  mag=     0.0000
       N       E                     dE             d eps       ncg     rms          rms(c)
DAV:   1    -0.794920147970E+03    0.21343E-05   -0.87797E-04 17168   0.668E-02    0.552E-03
DAV:   2    -0.794920152386E+03   -0.44158E-05   -0.50123E-05 22688   0.173E-02    0.310E-03
DAV:   3    -0.794920152302E+03    0.84161E-07   -0.11617E-06 13280   0.435E-03
  37 F= -.79492015E+03 E0= -.79492015E+03  d E =-.516181E-04  mag=    -0.0000
       N       E                     dE             d eps       ncg     rms          rms(c)
DAV:   1    -0.794920115106E+03    0.37280E-04   -0.15176E-02 16688   0.281E-01    0.195E-02
DAV:   2    -0.794920184909E+03   -0.69803E-04   -0.80269E-04 22816   0.709E-02    0.126E-02
DAV:   3    -0.794920183446E+03    0.14621E-05   -0.26319E-05 24688   0.182E-02    0.847E-03
DAV:   4    -0.794920182019E+03    0.14275E-05   -0.12325E-05 22384   0.866E-03    0.341E-03
DAV:   5    -0.794920181995E+03    0.24222E-07   -0.24591E-06 12928   0.460E-03
  38 F= -.79492018E+03 E0= -.79492018E+03  d E =-.296929E-04  mag=    -0.0000
       N       E                     dE             d eps       ncg     rms          rms(c)
DAV:   1    -0.794920181231E+03    0.78772E-06   -0.20375E-04 17008   0.327E-02    0.217E-03
DAV:   2    -0.794920182122E+03   -0.89113E-06   -0.10792E-05 18928   0.808E-03    0.150E-03
DAV:   3    -0.794920182087E+03    0.35438E-07   -0.34844E-07  9896   0.219E-03
  39 F= -.79492018E+03 E0= -.79492018E+03  d E =-.297851E-04  mag=     0.0000
       N       E                     dE             d eps       ncg     rms          rms(c)
DAV:   1    -0.794920178002E+03    0.41199E-05   -0.86416E-03 16736   0.206E-01    0.149E-02
DAV:   2    -0.794920208012E+03   -0.30010E-04   -0.36520E-04 23216   0.528E-02    0.895E-03
DAV:   3    -0.794920206837E+03    0.11751E-05   -0.13036E-05 23328   0.127E-02    0.567E-03
DAV:   4    -0.794920205635E+03    0.12022E-05   -0.31759E-06 14624   0.561E-03    0.174E-03
DAV:   5    -0.794920205653E+03   -0.18339E-07   -0.15267E-06 10024   0.506E-03
  40 F= -.79492021E+03 E0= -.79492021E+03  d E =-.235661E-04  mag=    -0.0000
