       N       E                     dE             d eps       ncg     rms          rms(c)
DAV:   1     0.198090482458E+04    0.19809E+04   -0.64947E+04 98976   0.125E+03
DAV:   2     0.788630030808E+02   -0.19020E+04   -0.18039E+04 98456   0.402E+02
DAV:   3    -0.258321262381E+03   -0.33718E+03   -0.31784E+03149200   0.162E+02
DAV:   4    -0.286311991024E+03   -0.27991E+02   -0.27710E+02163064   0.608E+01
DAV:   5    -0.286939955172E+03   -0.62796E+00   -0.62572E+00163216   0.145E+01    0.449E+01
DAV:   6    -0.242323257520E+03    0.44617E+02   -0.20016E+02156912   0.464E+01    0.141E+01
DAV:   7    -0.246680498870E+03   -0.43572E+01   -0.16008E+01153792   0.170E+01    0.860E+00
DAV:   8    -0.248181966023E+03   -0.15015E+01   -0.17351E+00150432   0.569E+00    0.356E+00
DAV:   9    -0.248574287290E+03   -0.39232E+00   -0.71189E-01137400   0.258E+00    0.798E-01
DAV:  10    -0.248571899850E+03    0.23874E-02   -0.98266E-02156264   0.116E+00    0.447E-01
DAV:  11    -0.248573230715E+03   -0.13309E-02   -0.20159E-02157768   0.554E-01    0.230E-01
DAV:  12    -0.248573744451E+03   -0.51374E-03   -0.20479E-03149696   0.192E-01    0.114E-01
DAV:  13    -0.248574420238E+03   -0.67579E-03   -0.21001E-03135136   0.138E-01    0.566E-02
DAV:  14    -0.248574429121E+03   -0.88831E-05   -0.31171E-04147728   0.833E-02    0.311E-02
DAV:  15    -0.248574427058E+03    0.20626E-05   -0.12529E-04143152   0.343E-02    0.117E-02
DAV:  16    -0.248574430703E+03   -0.36444E-05   -0.23555E-05143496   0.175E-02    0.613E-03
DAV:  17    -0.248574431492E+03   -0.78980E-06   -0.19145E-06158472   0.589E-03    0.373E-03
DAV:  18    -0.248574431591E+03   -0.98744E-07   -0.98790E-07127848   0.390E-03
   1 F= -.24857443E+03 E0= -.24857443E+03  d E =-.248574E+03  mag=     0.0003
       N       E                     dE             d eps       ncg     rms          rms(c)
DAV:   1    -0.248578255910E+03   -0.38244E-02   -0.12324E-01144152   0.177E+00    0.378E-01
DAV:   2    -0.248575095718E+03    0.31602E-02   -0.10456E-02141752   0.490E-01    0.143E-01
DAV:   3    -0.248574707655E+03    0.38806E-03   -0.17495E-03149496   0.145E-01    0.494E-02
DAV:   4    -0.248574658098E+03    0.49557E-04   -0.17714E-04157504   0.616E-02    0.228E-02
DAV:   5    -0.248574640894E+03    0.17204E-04   -0.28903E-05151896   0.217E-02    0.787E-03
DAV:   6    -0.248574637375E+03    0.35188E-05   -0.59837E-06153616   0.954E-03    0.235E-03
DAV:   7    -0.248574636558E+03    0.81755E-06   -0.50549E-07120504   0.363E-03    0.106E-03
DAV:   8    -0.248574636095E+03    0.46238E-06   -0.13497E-07 66792   0.174E-03    0.489E-04
DAV:   9    -0.248574635987E+03    0.10851E-06   -0.39788E-08 60200   0.163E-03    0.248E-04
DAV:  10    -0.248574635973E+03    0.14012E-07   -0.18538E-08 59160   0.774E-04
   2 F= -.24857464E+03 E0= -.24857464E+03  d E =-.204382E-03  mag=    -0.0000
       N       E                     dE             d eps       ncg     rms          rms(c)
DAV:   1    -0.248575516425E+03   -0.88044E-03   -0.22324E-02144112   0.755E-01    0.161E-01
DAV:   2    -0.248574945876E+03    0.57055E-03   -0.18927E-03141504   0.208E-01    0.608E-02
DAV:   3    -0.248574882006E+03    0.63870E-04   -0.31634E-04149416   0.619E-02    0.210E-02
DAV:   4    -0.248574875810E+03    0.61963E-05   -0.31982E-05157944   0.261E-02    0.971E-03
DAV:   5    -0.248574876085E+03   -0.27513E-06   -0.51679E-06151864   0.918E-03    0.332E-03
DAV:   6    -0.248574877182E+03   -0.10974E-05   -0.10530E-06143696   0.406E-03    0.985E-04
DAV:   7    -0.248574877510E+03   -0.32759E-06   -0.68280E-08 65176   0.168E-03    0.440E-04
DAV:   8    -0.248574877738E+03   -0.22815E-06   -0.49171E-08 59248   0.135E-03    0.177E-04
DAV:   9    -0.248574877761E+03   -0.23048E-07   -0.21730E-08 59040   0.110E-03
   3 F= -.24857488E+03 E0= -.24857488E+03  d E =-.446170E-03  mag=     0.0000
       N       E                     dE             d eps       ncg     rms          rms(c)
DAV:   1    -0.248574942695E+03   -0.64957E-04   -0.41238E-03122744   0.355E-01    0.398E-02
DAV:   2    -0.248574936668E+03    0.60271E-05   -0.24523E-04149768   0.664E-02    0.238E-02
DAV:   3    -0.248574925410E+03    0.11259E-04   -0.22883E-05156120   0.212E-02    0.519E-03
DAV:   4    -0.248574925156E+03    0.25351E-06   -0.40199E-06155792   0.895E-03    0.218E-03
DAV:   5    -0.248574925202E+03   -0.45407E-07   -0.50679E-07129040   0.307E-03
   4 F= -.24857493E+03 E0= -.24857493E+03  d E =-.474405E-04  mag=     0.0000
       N       E                     dE             d eps       ncg     rms          rms(c)
DAV:   1    -0.248574932060E+03   -0.69036E-05   -0.59064E-04122840   0.134E-01    0.151E-02
DAV:   2    -0.248574931229E+03    0.83046E-06   -0.35031E-05150048   0.251E-02    0.900E-03
DAV:   3    -0.248574929814E+03    0.14154E-05   -0.33102E-06156024   0.803E-03    0.197E-03
DAV:   4    -0.248574929799E+03    0.15629E-07   -0.52955E-07125896   0.340E-03
   5 F= -.24857493E+03 E0= -.24857493E+03  d E =-.520373E-04  mag=     0.0000
       N       E                     dE             d eps       ncg     rms          rms(c)
DAV:   1    -0.248574924002E+03    0.58121E-05   -0.26176E-03113240   0.300E-01    0.154E-02
DAV:   2    -0.248574940468E+03   -0.16466E-04   -0.22498E-04127256   0.547E-02    0.922E-03
DAV:   3    -0.248574939074E+03    0.13945E-05   -0.83899E-06161568   0.125E-02    0.451E-03
DAV:   4    -0.248574938509E+03    0.56446E-06   -0.15882E-06151928   0.575E-03    0.123E-03
DAV:   5    -0.248574938469E+03    0.40351E-07   -0.37110E-07 97544   0.275E-03
   6 F= -.24857494E+03 E0= -.24857494E+03  d E =-.867049E-05  mag=     0.0000
       N       E                     dE             d eps       ncg     rms          rms(c)
DAV:   1    -0.248574938244E+03    0.26543E-06   -0.68183E-05114384   0.488E-02    0.247E-03
DAV:   2    -0.248574938708E+03   -0.46447E-06   -0.59565E-06121768   0.876E-03    0.147E-03
DAV:   3    -0.248574938715E+03   -0.61245E-08   -0.21437E-07109448   0.201E-03
   7 F= -.24857494E+03 E0= -.24857494E+03  d E =-.891600E-05  mag=    -0.0000
       N       E                     dE             d eps       ncg     rms          rms(c)
DAV:   1    -0.248574937870E+03    0.83854E-06   -0.38277E-04127144   0.122E-01    0.715E-03
DAV:   2    -0.248574940633E+03   -0.27632E-05   -0.42137E-05116816   0.223E-02    0.366E-03
DAV:   3    -0.248574940676E+03   -0.43163E-07   -0.22591E-06155432   0.593E-03    0.177E-03
DAV:   4    -0.248574940658E+03    0.18414E-07   -0.10806E-07 86704   0.252E-03
   8 F= -.24857494E+03 E0= -.24857494E+03  d E =-.194325E-05  mag=    -0.0000
       N       E                     dE             d eps       ncg     rms          rms(c)
DAV:   1    -0.248574940120E+03    0.55602E-06   -0.73403E-05127352   0.543E-02    0.329E-03
DAV:   2    -0.248574940673E+03   -0.55277E-06   -0.82082E-06115456   0.978E-03    0.166E-03
DAV:   3    -0.248574940742E+03   -0.68823E-07   -0.42156E-07109592   0.269E-03
   9 F= -.24857494E+03 E0= -.24857494E+03  d E =-.202724E-05  mag=    -0.0000
       N       E                     dE             d eps       ncg     rms          rms(c)
DAV:   1    -0.248574940664E+03    0.84838E-08   -0.34639E-04109912   0.119E-01    0.728E-03
DAV:   2    -0.248574942987E+03   -0.23225E-05   -0.37554E-05134768   0.227E-02    0.420E-03
DAV:   3    -0.248574942609E+03    0.37832E-06   -0.10960E-06137688   0.478E-03    0.166E-03
DAV:   4    -0.248574942530E+03    0.79135E-07   -0.19075E-07 81456   0.212E-03
  10 F= -.24857494E+03 E0= -.24857494E+03  d E =-.178777E-05  mag=    -0.0000
       N       E                     dE             d eps       ncg     rms          rms(c)
DAV:   1    -0.248574942149E+03    0.45982E-06   -0.83590E-05110048   0.586E-02    0.351E-03
DAV:   2    -0.248574942714E+03   -0.56467E-06   -0.91792E-06134192   0.111E-02    0.200E-03
DAV:   3    -0.248574942615E+03    0.98436E-07   -0.22794E-07107256   0.236E-03
  11 F= -.24857494E+03 E0= -.24857494E+03  d E =-.187332E-05  mag=    -0.0000
       N       E                     dE             d eps       ncg     rms          rms(c)
DAV:   1    -0.248574939826E+03    0.28873E-05   -0.33190E-04109264   0.117E-01    0.701E-03
DAV:   2    -0.248574942095E+03   -0.22687E-05   -0.36184E-05132792   0.223E-02    0.401E-03
DAV:   3    -0.248574941735E+03    0.36032E-06   -0.10024E-06130296   0.462E-03    0.164E-03
DAV:   4    -0.248574941647E+03    0.87653E-07   -0.24148E-07 88504   0.225E-03
  12 F= -.24857494E+03 E0= -.24857494E+03  d E =-.905147E-06  mag=    -0.0000
       N       E                     dE             d eps       ncg     rms          rms(c)
DAV:   1    -0.248574941110E+03    0.62427E-06   -0.23498E-04108976   0.975E-02    0.590E-03
DAV:   2    -0.248574942753E+03   -0.16424E-05   -0.25358E-05131760   0.187E-02    0.340E-03
DAV:   3    -0.248574942527E+03    0.22527E-06   -0.67753E-07119656   0.385E-03    0.139E-03
DAV:   4    -0.248574942508E+03    0.19307E-07   -0.18213E-07 75120   0.211E-03
  13 F= -.24857494E+03 E0= -.24857494E+03  d E =-.176634E-05  mag=    -0.0000
       N       E                     dE             d eps       ncg     rms          rms(c)
DAV:   1    -0.248574942524E+03    0.33560E-08   -0.39420E-06110672   0.131E-02    0.775E-04
DAV:   2    -0.248574942559E+03   -0.35181E-07   -0.42382E-07 86848   0.233E-03
  14 F= -.24857494E+03 E0= -.24857494E+03  d E =-.181748E-05  mag=     0.0000
       N       E                     dE             d eps       ncg     rms          rms(c)
DAV:   1    -0.248574941431E+03    0.10925E-05   -0.29330E-04126424   0.994E-02    0.464E-03
DAV:   2    -0.248574943464E+03   -0.20324E-05   -0.27330E-05117112   0.180E-02    0.239E-03
DAV:   3    -0.248574943323E+03    0.14140E-06   -0.12474E-06145272   0.450E-03    0.123E-03
DAV:   4    -0.248574943234E+03    0.88732E-07   -0.71348E-08 63168   0.190E-03
  15 F= -.24857494E+03 E0= -.24857494E+03  d E =-.674579E-06  mag=    -0.0000
