       N       E                     dE             d eps       ncg     rms          rms(c)
DAV:   1     0.114747454289E+04    0.11475E+04   -0.67303E+04 44024   0.143E+03
DAV:   2    -0.137555968865E+03   -0.12850E+04   -0.12559E+04 48984   0.349E+02
DAV:   3    -0.287544309775E+03   -0.14999E+03   -0.14772E+03 51032   0.121E+02
DAV:   4    -0.295598391236E+03   -0.80541E+01   -0.80183E+01 58560   0.361E+01
DAV:   5    -0.295754042267E+03   -0.15565E+00   -0.15530E+00 54920   0.483E+00    0.480E+01
DAV:   6    -0.267900132620E+03    0.27854E+02   -0.55484E+02 59176   0.867E+01    0.915E+01
DAV:   7    -0.235873657317E+03    0.32026E+02   -0.42031E+02 59464   0.173E+02    0.247E+01
DAV:   8    -0.232192297965E+03    0.36814E+01   -0.61730E+01 52696   0.236E+01    0.203E+01
DAV:   9    -0.224283562026E+03    0.79087E+01   -0.10573E+01 57656   0.188E+01    0.833E+00
DAV:  10    -0.224637720968E+03   -0.35416E+00   -0.17361E+01 57296   0.102E+01    0.170E+01
DAV:  11    -0.223806140561E+03    0.83158E+00   -0.40418E+00 57272   0.715E+00    0.892E+00
DAV:  12    -0.223537391828E+03    0.26875E+00   -0.93822E-01 55592   0.375E+00    0.619E+00
DAV:  13    -0.223420059655E+03    0.11733E+00   -0.10564E+00 58744   0.314E+00    0.302E+00
DAV:  14    -0.223449963041E+03   -0.29903E-01   -0.92094E-01 55704   0.402E+00    0.448E+00
DAV:  15    -0.223397984842E+03    0.51978E-01   -0.17654E-01 55856   0.271E+00    0.364E+00
DAV:  16    -0.223329520419E+03    0.68464E-01   -0.21927E-01 60096   0.108E+00    0.174E+00
DAV:  17    -0.223343185418E+03   -0.13665E-01   -0.88750E-02 49976   0.542E-01    0.236E+00
DAV:  18    -0.223318384741E+03    0.24801E-01   -0.13581E-01 59248   0.685E-01    0.172E+00
DAV:  19    -0.223326350203E+03   -0.79655E-02   -0.32568E-02 50712   0.370E-01    0.151E+00
DAV:  20    -0.223325971877E+03    0.37833E-03   -0.80024E-04 43800   0.160E-01    0.149E+00
DAV:  21    -0.223322313561E+03    0.36583E-02   -0.87963E-03 55680   0.258E-01    0.109E+00
DAV:  22    -0.223325183394E+03   -0.28698E-02   -0.15663E-02 56488   0.382E-01    0.869E-01
DAV:  23    -0.223323226834E+03    0.19566E-02   -0.27515E-03 47488   0.147E-01    0.789E-01
DAV:  24    -0.223320542952E+03    0.26839E-02   -0.39053E-02 55960   0.503E-01    0.794E-01
DAV:  25    -0.223320773475E+03   -0.23052E-03   -0.96176E-03 49240   0.246E-01    0.374E-01
DAV:  26    -0.223321936660E+03   -0.11632E-02   -0.48611E-03 56296   0.183E-01    0.539E-01
DAV:  27    -0.223321527138E+03    0.40952E-03   -0.30032E-03 55584   0.137E-01    0.294E-01
DAV:  28    -0.223321502317E+03    0.24821E-04   -0.22541E-03 56464   0.160E-01    0.195E-01
DAV:  29    -0.223321611115E+03   -0.10880E-03   -0.17045E-03 55584   0.118E-01    0.122E-01
DAV:  30    -0.223321804973E+03   -0.19386E-03   -0.84746E-04 55904   0.694E-02    0.136E-01
DAV:  31    -0.223321793895E+03    0.11077E-04   -0.47015E-05 47440   0.349E-02    0.140E-01
DAV:  32    -0.223321849638E+03   -0.55743E-04   -0.23533E-03 57448   0.952E-02    0.325E-01
DAV:  33    -0.223321786766E+03    0.62872E-04   -0.64783E-03 57664   0.175E-01    0.475E-01
DAV:  34    -0.223321254939E+03    0.53183E-03   -0.38842E-03 56144   0.132E-01    0.343E-01
DAV:  35    -0.223321090101E+03    0.16484E-03   -0.17456E-03 54760   0.920E-02    0.198E-01
DAV:  36    -0.223321115102E+03   -0.25001E-04   -0.21646E-04 54152   0.627E-02    0.163E-01
DAV:  37    -0.223321021917E+03    0.93185E-04   -0.66119E-04 57296   0.504E-02    0.329E-02
DAV:  38    -0.223321028684E+03   -0.67666E-05   -0.30619E-04 57160   0.456E-02    0.327E-02
DAV:  39    -0.223321024821E+03    0.38628E-05   -0.57602E-05 51736   0.188E-02    0.228E-02
DAV:  40    -0.223321034711E+03   -0.98897E-05   -0.31162E-05 48748   0.144E-02    0.182E-02
DAV:  41    -0.223321034546E+03    0.16454E-06   -0.20802E-05 46168   0.127E-02    0.906E-03
DAV:  42    -0.223321034463E+03    0.83177E-07   -0.19963E-05 36432   0.996E-03    0.692E-03
DAV:  43    -0.223321035165E+03   -0.70245E-06   -0.52692E-06 32960   0.715E-03
   1 F= -.22332104E+03 E0= -.22332104E+03  d E =-.223321E+03  mag=     0.0052
       N       E                     dE             d eps       ncg     rms          rms(c)
DAV:   1    -0.226006107926E+03   -0.26851E+01   -0.14465E+03 45104   0.232E+02    0.233E+01
DAV:   2    -0.229959717665E+03   -0.39536E+01   -0.14986E+02 52148   0.618E+01    0.222E+01
DAV:   3    -0.228063414308E+03    0.18963E+01   -0.49319E+01 58832   0.509E+01    0.128E+01
DAV:   4    -0.225853416317E+03    0.22100E+01   -0.74733E+00 55784   0.147E+01    0.697E+00
DAV:   5    -0.225344904677E+03    0.50851E+00   -0.22962E+00 56248   0.983E+00    0.410E+00
DAV:   6    -0.225137448214E+03    0.20746E+00   -0.79423E-01 55872   0.705E+00    0.188E+00
DAV:   7    -0.225107150225E+03    0.30298E-01   -0.18647E-01 56896   0.250E+00    0.895E-01
DAV:   8    -0.225107160097E+03   -0.98714E-05   -0.61435E-02 55896   0.150E+00    0.758E-01
DAV:   9    -0.225103869560E+03    0.32905E-02   -0.25758E-02 56600   0.118E+00    0.436E-01
DAV:  10    -0.225101947705E+03    0.19219E-02   -0.65736E-03 55672   0.563E-01    0.193E-01
DAV:  11    -0.225101733392E+03    0.21431E-03   -0.58744E-03 53480   0.269E-01    0.721E-02
DAV:  12    -0.225101752684E+03   -0.19292E-04   -0.53786E-04 51608   0.115E-01    0.516E-02
DAV:  13    -0.225101760079E+03   -0.73958E-05   -0.23414E-04 48368   0.644E-02    0.256E-02
DAV:  14    -0.225101753587E+03    0.64926E-05   -0.94474E-05 57208   0.375E-02    0.110E-02
DAV:  15    -0.225101752564E+03    0.10228E-05   -0.12805E-05 49248   0.162E-02    0.450E-03
DAV:  16    -0.225101752680E+03   -0.11565E-06   -0.39169E-06 36184   0.760E-03
   2 F= -.22510175E+03 E0= -.22510175E+03  d E =-.178072E+01  mag=     0.0000
       N       E                     dE             d eps       ncg     rms          rms(c)
DAV:   1    -0.228407884939E+03   -0.33061E+01   -0.23595E+02 45804   0.949E+01    0.212E+01
DAV:   2    -0.243574578169E+03   -0.15167E+02   -0.16735E+02 59880   0.835E+01    0.214E+01
DAV:   3    -0.230789734591E+03    0.12785E+02   -0.14810E+01 53616   0.261E+01    0.120E+01
DAV:   4    -0.228761102999E+03    0.20286E+01   -0.52650E+00 57616   0.108E+01    0.819E+00
DAV:   5    -0.227097890198E+03    0.16632E+01   -0.30367E+00 57200   0.131E+01    0.248E+00
DAV:   6    -0.227400123836E+03   -0.30223E+00   -0.17667E+00 56160   0.813E+00    0.458E+00
DAV:   7    -0.227123492130E+03    0.27663E+00   -0.12105E+00 57896   0.681E+00    0.334E+00
DAV:   8    -0.227092198737E+03    0.31293E-01   -0.22636E-01 55552   0.176E+00    0.139E+00
DAV:   9    -0.227154198772E+03   -0.62000E-01   -0.76246E-01 56240   0.308E+00    0.231E+00
DAV:  10    -0.227095229269E+03    0.58970E-01   -0.89192E-02 57440   0.174E+00    0.136E+00
DAV:  11    -0.227075019155E+03    0.20210E-01   -0.10675E-01 58792   0.819E-01    0.350E-01
DAV:  12    -0.227075153934E+03   -0.13478E-03   -0.18649E-02 53976   0.435E-01    0.370E-01
DAV:  13    -0.227080359592E+03   -0.52057E-02   -0.57078E-02 58384   0.485E-01    0.105E+00
DAV:  14    -0.227074948031E+03    0.54116E-02   -0.42482E-02 59128   0.391E-01    0.175E-01
DAV:  15    -0.227075339229E+03   -0.39120E-03   -0.11119E-03 49664   0.859E-02    0.182E-01
DAV:  16    -0.227075188308E+03    0.15092E-03   -0.37604E-04 55104   0.377E-02    0.123E-01
DAV:  17    -0.227075181165E+03    0.71436E-05   -0.33618E-04 58080   0.537E-02    0.600E-02
DAV:  18    -0.227075208713E+03   -0.27548E-04   -0.96023E-05 51704   0.369E-02    0.467E-02
DAV:  19    -0.227075177736E+03    0.30978E-04   -0.73982E-05 56488   0.227E-02    0.849E-02
DAV:  20    -0.227075193830E+03   -0.16094E-04   -0.27895E-05 44368   0.119E-02    0.622E-02
DAV:  21    -0.227075195173E+03   -0.13429E-05   -0.16867E-05 43080   0.993E-03    0.566E-02
DAV:  22    -0.227075211971E+03   -0.16799E-04   -0.20584E-05 33768   0.947E-03    0.373E-02
DAV:  23    -0.227075238182E+03   -0.26211E-04   -0.23701E-05 39480   0.971E-03    0.119E-02
DAV:  24    -0.227075264199E+03   -0.26016E-04   -0.17770E-05 31080   0.834E-03    0.119E-02
DAV:  25    -0.227075266201E+03   -0.20027E-05   -0.11543E-06 25368   0.478E-03    0.141E-02
DAV:  26    -0.227075250562E+03    0.15640E-04   -0.48119E-06 23296   0.394E-03    0.241E-03
DAV:  27    -0.227075242865E+03    0.76968E-05   -0.16188E-06 23296   0.227E-03    0.475E-03
DAV:  28    -0.227075247118E+03   -0.42528E-05   -0.49379E-07 23296   0.226E-03    0.110E-03
DAV:  29    -0.227075248368E+03   -0.12506E-05   -0.86647E-08 23296   0.640E-04    0.339E-04
DAV:  30    -0.227075247358E+03    0.10103E-05   -0.38232E-08 23276   0.565E-04    0.834E-04
DAV:  31    -0.227075247672E+03   -0.31395E-06   -0.18175E-08 23272   0.328E-04
   3 F= -.22707525E+03 E0= -.22707525E+03  d E =-.375421E+01  mag=    -0.0001
       N       E                     dE             d eps       ncg     rms          rms(c)
DAV:   1    -0.227079076261E+03   -0.38289E-02   -0.27858E-01 45628   0.334E+00    0.758E-01
DAV:   2    -0.227204682729E+03   -0.12561E+00   -0.12154E+00 56480   0.246E+00    0.574E+00
DAV:   3    -0.227073205810E+03    0.13148E+00   -0.10301E+00 57264   0.212E+00    0.405E-01
DAV:   4    -0.227078219561E+03   -0.50138E-02   -0.84122E-03 54664   0.504E-01    0.255E-01
DAV:   5    -0.227078218112E+03    0.14487E-05   -0.21234E-03 57256   0.225E-01    0.118E-01
DAV:   6    -0.227078474995E+03   -0.25688E-03   -0.12390E-03 57832   0.116E-01    0.204E-01
DAV:   7    -0.227078268355E+03    0.20664E-03   -0.34363E-04 55016   0.366E-02    0.121E-01
DAV:   8    -0.227078201087E+03    0.67269E-04   -0.54792E-04 56800   0.673E-02    0.290E-02
DAV:   9    -0.227078213936E+03   -0.12849E-04   -0.42541E-05 56544   0.425E-02    0.127E-02
DAV:  10    -0.227078211809E+03    0.21272E-05   -0.10588E-05 48728   0.172E-02    0.741E-03
DAV:  11    -0.227078214980E+03   -0.31713E-05   -0.42975E-06 34576   0.711E-03    0.987E-03
DAV:  12    -0.227078214617E+03    0.36279E-06   -0.19490E-06 27152   0.437E-03
   4 F= -.22707821E+03 E0= -.22707821E+03  d E =-.375718E+01  mag=     0.0000
       N       E                     dE             d eps       ncg     rms          rms(c)
DAV:   1    -0.226708958304E+03    0.36926E+00   -0.17881E+02 44800   0.851E+01    0.438E+00
DAV:   2    -0.228091254446E+03   -0.13823E+01   -0.16356E+01 44416   0.205E+01    0.479E+00
DAV:   3    -0.227827426280E+03    0.26383E+00   -0.84345E-01 57472   0.813E+00    0.190E+00
DAV:   4    -0.227768611600E+03    0.58815E-01   -0.27034E-01 61504   0.278E+00    0.809E-01
DAV:   5    -0.227764922900E+03    0.36887E-02   -0.57925E-02 56912   0.142E+00    0.511E-01
DAV:   6    -0.227764690399E+03    0.23250E-03   -0.20007E-02 55904   0.113E+00    0.404E-01
DAV:   7    -0.227763572477E+03    0.11179E-02   -0.48083E-03 57552   0.511E-01    0.133E-01
DAV:   8    -0.227763818999E+03   -0.24652E-03   -0.10607E-03 55376   0.175E-01    0.746E-02
DAV:   9    -0.227763875985E+03   -0.56987E-04   -0.35560E-04 57680   0.148E-01    0.694E-02
DAV:  10    -0.227763855354E+03    0.20632E-04   -0.17640E-04 58304   0.931E-02    0.239E-02
DAV:  11    -0.227763863554E+03   -0.81999E-05   -0.31899E-05 53264   0.312E-02    0.999E-03
DAV:  12    -0.227763864965E+03   -0.14118E-05   -0.74560E-06 45280   0.127E-02    0.519E-03
DAV:  13    -0.227763865270E+03   -0.30495E-06   -0.16273E-06 23704   0.640E-03
   5 F= -.22776387E+03 E0= -.22776387E+03  d E =-.685651E+00  mag=     0.0000
       N       E                     dE             d eps       ncg     rms          rms(c)
DAV:   1    -0.227754807726E+03    0.90572E-02   -0.32815E+00 44928   0.118E+01    0.625E-01
DAV:   2    -0.227782708842E+03   -0.27901E-01   -0.31704E-01 45072   0.286E+00    0.805E-01
DAV:   3    -0.227775622440E+03    0.70864E-02   -0.22988E-02 57504   0.133E+00    0.267E-01
DAV:   4    -0.227774413324E+03    0.12091E-02   -0.50373E-03 60464   0.365E-01    0.107E-01
DAV:   5    -0.227774442091E+03   -0.28767E-04   -0.11599E-03 56080   0.223E-01    0.113E-01
DAV:   6    -0.227774322524E+03    0.11957E-03   -0.43389E-04 57712   0.178E-01    0.387E-02
DAV:   7    -0.227774320086E+03    0.24379E-05   -0.64273E-05 57040   0.487E-02    0.153E-02
DAV:   8    -0.227774323156E+03   -0.30697E-05   -0.11107E-05 44992   0.155E-02    0.819E-03
DAV:   9    -0.227774324191E+03   -0.10359E-05   -0.39613E-06 39696   0.108E-02    0.469E-03
DAV:  10    -0.227774324314E+03   -0.12266E-06   -0.12726E-06 30368   0.103E-02
   6 F= -.22777432E+03 E0= -.22777432E+03  d E =-.696110E+00  mag=    -0.0000
       N       E                     dE             d eps       ncg     rms          rms(c)
DAV:   1    -0.227328717817E+03    0.44561E+00   -0.18835E+02 44800   0.892E+01    0.637E+00
DAV:   2    -0.229070176999E+03   -0.17415E+01   -0.19478E+01 51136   0.250E+01    0.793E+00
DAV:   3    -0.228189704454E+03    0.88047E+00   -0.19906E+00 57312   0.126E+01    0.223E+00
DAV:   4    -0.228124840176E+03    0.64864E-01   -0.51094E-01 55632   0.339E+00    0.105E+00
DAV:   5    -0.228122124945E+03    0.27152E-02   -0.10301E-01 56256   0.241E+00    0.923E-01
DAV:   6    -0.228113715446E+03    0.84095E-02   -0.31425E-02 55984   0.154E+00    0.375E-01
DAV:   7    -0.228113394685E+03    0.32076E-03   -0.80654E-03 57408   0.511E-01    0.147E-01
DAV:   8    -0.228113674073E+03   -0.27939E-03   -0.11063E-03 55968   0.215E-01    0.108E-01
DAV:   9    -0.228113674448E+03   -0.37551E-06   -0.61800E-04 57968   0.192E-01    0.625E-02
DAV:  10    -0.228113678439E+03   -0.39910E-05   -0.14861E-04 56288   0.780E-02    0.259E-02
DAV:  11    -0.228113680867E+03   -0.24281E-05   -0.42442E-05 52560   0.328E-02    0.104E-02
DAV:  12    -0.228113682427E+03   -0.15592E-05   -0.16224E-05 53440   0.170E-02    0.517E-03
DAV:  13    -0.228113682654E+03   -0.22723E-06   -0.17717E-06 25840   0.696E-03
   7 F= -.22811368E+03 E0= -.22811368E+03  d E =-.339358E+00  mag=     0.0000
       N       E                     dE             d eps       ncg     rms          rms(c)
DAV:   1    -0.228108925498E+03    0.47569E-02   -0.19327E+00 43040   0.927E+00    0.638E-01
DAV:   2    -0.228128034318E+03   -0.19109E-01   -0.20354E-01 52512   0.247E+00    0.879E-01
DAV:   3    -0.228118977043E+03    0.90573E-02   -0.25022E-02 57352   0.144E+00    0.253E-01
DAV:   4    -0.228118219398E+03    0.75765E-03   -0.53614E-03 57344   0.366E-01    0.959E-02
DAV:   5    -0.228118135631E+03    0.83766E-04   -0.63220E-04 56320   0.155E-01    0.633E-02
DAV:   6    -0.228118141907E+03   -0.62752E-05   -0.32544E-04 57744   0.138E-01    0.546E-02
DAV:   7    -0.228118116339E+03    0.25568E-04   -0.72528E-05 57760   0.720E-02    0.148E-02
DAV:   8    -0.228118118382E+03   -0.20436E-05   -0.17865E-05 52208   0.188E-02    0.758E-03
DAV:   9    -0.228118119395E+03   -0.10126E-05   -0.48027E-06 43312   0.121E-02    0.637E-03
DAV:  10    -0.228118119282E+03    0.11317E-06   -0.11239E-06 30640   0.106E-02
   8 F= -.22811812E+03 E0= -.22811812E+03  d E =-.343795E+00  mag=     0.0000
       N       E                     dE             d eps       ncg     rms          rms(c)
DAV:   1    -0.227713661598E+03    0.40446E+00   -0.90830E+01 43008   0.631E+01    0.244E+00
DAV:   2    -0.228412591243E+03   -0.69893E+00   -0.82247E+00 42992   0.126E+01    0.161E+00
DAV:   3    -0.228400561509E+03    0.12030E-01   -0.22849E-01 57312   0.328E+00    0.143E+00
DAV:   4    -0.228374568677E+03    0.25993E-01   -0.66889E-02 55904   0.215E+00    0.632E-01
DAV:   5    -0.228370078325E+03    0.44904E-02   -0.34976E-02 58560   0.925E-01    0.230E-01
DAV:   6    -0.228369899290E+03    0.17903E-03   -0.59178E-03 55840   0.477E-01    0.183E-01
DAV:   7    -0.228369793688E+03    0.10560E-03   -0.21954E-03 57408   0.291E-01    0.114E-01
DAV:   8    -0.228369780137E+03    0.13551E-04   -0.50736E-04 57712   0.149E-01    0.575E-02
DAV:   9    -0.228369803526E+03   -0.23389E-04   -0.15728E-04 55664   0.637E-02    0.224E-02
DAV:  10    -0.228369812386E+03   -0.88608E-05   -0.79294E-05 56208   0.421E-02    0.170E-02
DAV:  11    -0.228369811175E+03    0.12113E-05   -0.13698E-05 56448   0.278E-02    0.992E-03
DAV:  12    -0.228369810806E+03    0.36914E-06   -0.59767E-06 46848   0.126E-02
   9 F= -.22836981E+03 E0= -.22836981E+03  d E =-.251692E+00  mag=    -0.0000
       N       E                     dE             d eps       ncg     rms          rms(c)
DAV:   1    -0.228200235398E+03    0.16958E+00   -0.27572E+01 43008   0.350E+01    0.133E+00
DAV:   2    -0.228418493878E+03   -0.21826E+00   -0.25570E+00 43008   0.676E+00    0.864E-01
DAV:   3    -0.228414049362E+03    0.44445E-02   -0.64619E-02 57424   0.172E+00    0.748E-01
DAV:   4    -0.228407353291E+03    0.66961E-02   -0.19600E-02 56816   0.119E+00    0.375E-01
DAV:   5    -0.228405699860E+03    0.16534E-02   -0.99086E-03 60784   0.547E-01    0.121E-01
DAV:   6    -0.228405629917E+03    0.69943E-04   -0.16380E-03 54000   0.230E-01    0.869E-02
DAV:   7    -0.228405640059E+03   -0.10143E-04   -0.67054E-04 57392   0.151E-01    0.677E-02
DAV:   8    -0.228405624278E+03    0.15781E-04   -0.15208E-04 57520   0.918E-02    0.323E-02
DAV:   9    -0.228405628256E+03   -0.39773E-05   -0.48097E-05 55120   0.371E-02    0.132E-02
DAV:  10    -0.228405631496E+03   -0.32404E-05   -0.28132E-05 57312   0.258E-02    0.108E-02
DAV:  11    -0.228405630744E+03    0.75176E-06   -0.44623E-06 44544   0.169E-02
  10 F= -.22840563E+03 E0= -.22840563E+03  d E =-.287511E+00  mag=     0.0000
       N       E                     dE             d eps       ncg     rms          rms(c)
DAV:   1    -0.228185754919E+03    0.21988E+00   -0.56741E+01 43008   0.507E+01    0.246E+00
DAV:   2    -0.228690192505E+03   -0.50444E+00   -0.54174E+00 42976   0.107E+01    0.284E+00
DAV:   3    -0.228606964314E+03    0.83228E-01   -0.33904E-01 56704   0.538E+00    0.120E+00
DAV:   4    -0.228589703854E+03    0.17260E-01   -0.67129E-02 57440   0.156E+00    0.444E-01
DAV:   5    -0.228588458823E+03    0.12450E-02   -0.14239E-02 53856   0.588E-01    0.250E-01
DAV:   6    -0.228588624535E+03   -0.16571E-03   -0.44747E-03 56288   0.548E-01    0.214E-01
DAV:   7    -0.228588328983E+03    0.29555E-03   -0.11749E-03 57264   0.281E-01    0.631E-02
DAV:   8    -0.228588349521E+03   -0.20538E-04   -0.21805E-04 55168   0.833E-02    0.326E-02
DAV:   9    -0.228588366196E+03   -0.16674E-04   -0.60905E-05 54992   0.477E-02    0.205E-02
DAV:  10    -0.228588365715E+03    0.48066E-06   -0.21892E-05 55792   0.387E-02    0.133E-02
DAV:  11    -0.228588365210E+03    0.50470E-06   -0.81967E-06 54000   0.193E-02
  11 F= -.22858837E+03 E0= -.22858837E+03  d E =-.182734E+00  mag=    -0.0000
       N       E                     dE             d eps       ncg     rms          rms(c)
DAV:   1    -0.227077402823E+03    0.15110E+01   -0.23738E+02 43040   0.102E+02    0.518E+00
DAV:   2    -0.229153632693E+03   -0.20762E+01   -0.22329E+01 43408   0.231E+01    0.600E+00
DAV:   3    -0.228790739301E+03    0.36289E+00   -0.15177E+00 57488   0.114E+01    0.249E+00
DAV:   4    -0.228713155169E+03    0.77584E-01   -0.29955E-01 57744   0.319E+00    0.960E-01
DAV:   5    -0.228705137422E+03    0.80177E-02   -0.74735E-02 51232   0.121E+00    0.472E-01
DAV:   6    -0.228706960122E+03   -0.18227E-02   -0.20269E-02 56384   0.108E+00    0.461E-01
DAV:   7    -0.228705132610E+03    0.18275E-02   -0.51562E-03 57712   0.680E-01    0.145E-01
DAV:   8    -0.228705203188E+03   -0.70578E-04   -0.80413E-04 56624   0.172E-01    0.843E-02
DAV:   9    -0.228705303102E+03   -0.99913E-04   -0.48595E-04 56464   0.170E-01    0.752E-02
DAV:  10    -0.228705259599E+03    0.43502E-04   -0.14908E-04 57488   0.108E-01    0.204E-02
DAV:  11    -0.228705264813E+03   -0.52133E-05   -0.54942E-05 56528   0.348E-02    0.987E-03
DAV:  12    -0.228705265529E+03   -0.71594E-06   -0.65087E-06 42992   0.136E-02
  12 F= -.22870527E+03 E0= -.22870527E+03  d E =-.299635E+00  mag=     0.0000
       N       E                     dE             d eps       ncg     rms          rms(c)
DAV:   1    -0.228592863671E+03    0.11240E+00   -0.15795E+01 43008   0.269E+01    0.126E+00
DAV:   2    -0.228737404667E+03   -0.14454E+00   -0.16253E+00 42816   0.574E+00    0.128E+00
DAV:   3    -0.228720798716E+03    0.16606E-01   -0.80933E-02 56672   0.253E+00    0.655E-01
DAV:   4    -0.228715189438E+03    0.56093E-02   -0.18306E-02 57928   0.854E-01    0.242E-01
DAV:   5    -0.228714726199E+03    0.46324E-03   -0.48998E-03 49824   0.319E-01    0.121E-01
DAV:   6    -0.228714797878E+03   -0.71680E-04   -0.11885E-03 56008   0.281E-01    0.114E-01
DAV:   7    -0.228714706024E+03    0.91855E-04   -0.36411E-04 57872   0.165E-01    0.354E-02
DAV:   8    -0.228714707171E+03   -0.11471E-05   -0.59391E-05 54432   0.435E-02    0.190E-02
DAV:   9    -0.228714713161E+03   -0.59900E-05   -0.21454E-05 55232   0.232E-02    0.105E-02
DAV:  10    -0.228714713114E+03    0.47097E-07   -0.60092E-06 50448   0.206E-02
  13 F= -.22871471E+03 E0= -.22871471E+03  d E =-.309082E+00  mag=    -0.0000
       N       E                     dE             d eps       ncg     rms          rms(c)
DAV:   1    -0.228269747175E+03    0.44497E+00   -0.74522E+01 43008   0.568E+01    0.182E+00
DAV:   2    -0.228922914471E+03   -0.65317E+00   -0.70558E+00 42984   0.110E+01    0.154E+00
DAV:   3    -0.228912026148E+03    0.10888E-01   -0.20768E-01 59008   0.319E+00    0.111E+00
DAV:   4    -0.228896861718E+03    0.15164E-01   -0.40068E-02 57824   0.140E+00    0.520E-01
DAV:   5    -0.228894992714E+03    0.18690E-02   -0.32406E-02 48960   0.817E-01    0.264E-01
DAV:   6    -0.228894820405E+03    0.17231E-03   -0.66374E-03 57024   0.551E-01    0.190E-01
DAV:   7    -0.228894457747E+03    0.36266E-03   -0.21267E-03 58464   0.263E-01    0.846E-02
DAV:   8    -0.228894469478E+03   -0.11731E-04   -0.44797E-04 49056   0.903E-02    0.491E-02
DAV:   9    -0.228894487882E+03   -0.18404E-04   -0.10387E-04 48880   0.489E-02    0.166E-02
DAV:  10    -0.228894493320E+03   -0.54374E-05   -0.28972E-05 54320   0.271E-02    0.942E-03
DAV:  11    -0.228894493342E+03   -0.21928E-07   -0.62684E-06 49888   0.191E-02
  14 F= -.22889449E+03 E0= -.22889449E+03  d E =-.179780E+00  mag=     0.0000
       N       E                     dE             d eps       ncg     rms          rms(c)
DAV:   1    -0.228838327125E+03    0.56166E-01   -0.82491E+00 43024   0.192E+01    0.596E-01
DAV:   2    -0.228909662101E+03   -0.71335E-01   -0.79105E-01 43008   0.346E+00    0.407E-01
DAV:   3    -0.228909487274E+03    0.17483E-03   -0.20566E-02 56896   0.889E-01    0.356E-01
DAV:   4    -0.228908170208E+03    0.13171E-02   -0.43048E-03 57808   0.521E-01    0.196E-01
DAV:   5    -0.228907881724E+03    0.28848E-03   -0.46000E-03 51088   0.304E-01    0.856E-02
DAV:   6    -0.228907783113E+03    0.98611E-04   -0.72646E-04 53664   0.147E-01    0.569E-02
DAV:   7    -0.228907771819E+03    0.11295E-04   -0.43832E-04 58224   0.936E-02    0.377E-02
DAV:   8    -0.228907767075E+03    0.47438E-05   -0.85502E-05 57328   0.541E-02    0.205E-02
DAV:   9    -0.228907766495E+03    0.57959E-06   -0.16915E-05 55504   0.219E-02    0.756E-03
DAV:  10    -0.228907767588E+03   -0.10925E-05   -0.93233E-06 48992   0.137E-02    0.485E-03
DAV:  11    -0.228907767471E+03    0.11712E-06   -0.94401E-07 28624   0.860E-03
  15 F= -.22890777E+03 E0= -.22890777E+03  d E =-.193054E+00  mag=    -0.0000
       N       E                     dE             d eps       ncg     rms          rms(c)
DAV:   1    -0.229003492981E+03   -0.95725E-01   -0.98238E+00 44800   0.174E+01    0.164E+00
DAV:   2    -0.229063077486E+03   -0.59585E-01   -0.71034E-01 55136   0.565E+00    0.206E+00
DAV:   3    -0.229007187030E+03    0.55890E-01   -0.11118E-01 57088   0.325E+00    0.558E-01
DAV:   4    -0.229002909556E+03    0.42775E-02   -0.46859E-02 57008   0.972E-01    0.253E-01
DAV:   5    -0.229002311218E+03    0.59834E-03   -0.68975E-03 55664   0.522E-01    0.188E-01
DAV:   6    -0.229001975803E+03    0.33542E-03   -0.22629E-03 57648   0.323E-01    0.913E-02
DAV:   7    -0.229001899695E+03    0.76108E-04   -0.51495E-04 56576   0.138E-01    0.325E-02
DAV:   8    -0.229001904290E+03   -0.45947E-05   -0.10915E-04 57744   0.752E-02    0.286E-02
DAV:   9    -0.229001899081E+03    0.52083E-05   -0.34300E-05 57856   0.475E-02    0.135E-02
DAV:  10    -0.229001900458E+03   -0.13767E-05   -0.12206E-05 54272   0.168E-02    0.695E-03
DAV:  11    -0.229001900612E+03   -0.15396E-06   -0.24800E-06 29968   0.902E-03
  16 F= -.22900190E+03 E0= -.22900190E+03  d E =-.941331E-01  mag=     0.0000
       N       E                     dE             d eps       ncg     rms          rms(c)
DAV:   1    -0.229023381987E+03   -0.21482E-01   -0.51362E+00 44832   0.126E+01    0.118E+00
DAV:   2    -0.229053991964E+03   -0.30610E-01   -0.36935E-01 55200   0.405E+00    0.148E+00
DAV:   3    -0.229025323902E+03    0.28668E-01   -0.58159E-02 57200   0.236E+00    0.406E-01
DAV:   4    -0.229023104964E+03    0.22189E-02   -0.23966E-02 57152   0.713E-01    0.192E-01
DAV:   5    -0.229022793818E+03    0.31115E-03   -0.36671E-03 55808   0.402E-01    0.142E-01
DAV:   6    -0.229022584536E+03    0.20928E-03   -0.12513E-03 57552   0.236E-01    0.637E-02
DAV:   7    -0.229022551120E+03    0.33415E-04   -0.27888E-04 56272   0.967E-02    0.254E-02
DAV:   8    -0.229022553343E+03   -0.22224E-05   -0.62113E-05 57744   0.596E-02    0.222E-02
DAV:   9    -0.229022549769E+03    0.35731E-05   -0.19171E-05 57696   0.354E-02    0.957E-03
DAV:  10    -0.229022550650E+03   -0.88085E-06   -0.69301E-06 46192   0.119E-02
  17 F= -.22902255E+03 E0= -.22902255E+03  d E =-.114783E+00  mag=    -0.0000
       N       E                     dE             d eps       ncg     rms          rms(c)
DAV:   1    -0.228996878502E+03    0.25671E-01   -0.13958E+01 44800   0.243E+01    0.977E-01
DAV:   2    -0.229096528396E+03   -0.99650E-01   -0.11858E+00 43600   0.501E+00    0.864E-01
DAV:   3    -0.229091126424E+03    0.54020E-02   -0.46067E-02 56128   0.161E+00    0.550E-01
DAV:   4    -0.229086084619E+03    0.50418E-02   -0.10732E-02 58448   0.739E-01    0.240E-01
DAV:   5    -0.229085455973E+03    0.62865E-03   -0.63501E-03 56208   0.402E-01    0.132E-01
DAV:   6    -0.229085373188E+03    0.82785E-04   -0.13993E-03 55824   0.278E-01    0.878E-02
DAV:   7    -0.229085305781E+03    0.67407E-04   -0.43410E-04 57520   0.120E-01    0.378E-02
DAV:   8    -0.229085310321E+03   -0.45406E-05   -0.94972E-05 55552   0.475E-02    0.218E-02
DAV:   9    -0.229085315471E+03   -0.51495E-05   -0.29906E-05 56192   0.368E-02    0.170E-02
DAV:  10    -0.229085314914E+03    0.55719E-06   -0.13416E-05 57296   0.282E-02    0.774E-03
DAV:  11    -0.229085315142E+03   -0.22851E-06   -0.17739E-06 30176   0.107E-02
  18 F= -.22908532E+03 E0= -.22908532E+03  d E =-.627645E-01  mag=     0.0000
       N       E                     dE             d eps       ncg     rms          rms(c)
DAV:   1    -0.229074470012E+03    0.10845E-01   -0.28058E+00 44896   0.109E+01    0.432E-01
DAV:   2    -0.229094159899E+03   -0.19690E-01   -0.23590E-01 43440   0.220E+00    0.367E-01
DAV:   3    -0.229093249577E+03    0.91032E-03   -0.89481E-03 55904   0.694E-01    0.248E-01
DAV:   4    -0.229092252195E+03    0.99738E-03   -0.21958E-03 58128   0.343E-01    0.108E-01
DAV:   5    -0.229092122802E+03    0.12939E-03   -0.12754E-03 56704   0.179E-01    0.566E-02
DAV:   6    -0.229092107677E+03    0.15124E-04   -0.26878E-04 55808   0.122E-01    0.397E-02
DAV:   7    -0.229092094649E+03    0.13029E-04   -0.93226E-05 57616   0.551E-02    0.174E-02
DAV:   8    -0.229092095325E+03   -0.67634E-06   -0.19553E-05 52080   0.221E-02    0.101E-02
DAV:   9    -0.229092096355E+03   -0.10298E-05   -0.60443E-06 48384   0.159E-02    0.717E-03
DAV:  10    -0.229092096346E+03    0.92004E-08   -0.19640E-06 32880   0.127E-02
  19 F= -.22909210E+03 E0= -.22909210E+03  d E =-.695457E-01  mag=     0.0000
       N       E                     dE             d eps       ncg     rms          rms(c)
DAV:   1    -0.229061072539E+03    0.31024E-01   -0.13175E+01 44800   0.228E+01    0.123E+00
DAV:   2    -0.229154554944E+03   -0.93482E-01   -0.11547E+00 43376   0.505E+00    0.122E+00
DAV:   3    -0.229140719890E+03    0.13835E-01   -0.67597E-02 57360   0.235E+00    0.650E-01
DAV:   4    -0.229133247921E+03    0.74720E-02   -0.19228E-02 59248   0.847E-01    0.224E-01
DAV:   5    -0.229132522259E+03    0.72566E-03   -0.47738E-03 46672   0.311E-01    0.831E-02
DAV:   6    -0.229132573609E+03   -0.51350E-04   -0.11013E-03 55680   0.168E-01    0.656E-02
DAV:   7    -0.229132555377E+03    0.18232E-04   -0.19685E-04 57744   0.120E-01    0.416E-02
DAV:   8    -0.229132551879E+03    0.34986E-05   -0.55303E-05 57552   0.517E-02    0.191E-02
DAV:   9    -0.229132555017E+03   -0.31383E-05   -0.20051E-05 48256   0.236E-02    0.631E-03
DAV:  10    -0.229132556006E+03   -0.98870E-06   -0.68314E-06 42640   0.113E-02
  20 F= -.22913256E+03 E0= -.22913256E+03  d E =-.404597E-01  mag=     0.0000
       N       E                     dE             d eps       ncg     rms          rms(c)
DAV:   1    -0.229132203743E+03    0.35127E-03   -0.13079E-01 45136   0.228E+00    0.123E-01
DAV:   2    -0.229133120268E+03   -0.91652E-03   -0.11291E-02 43360   0.507E-01    0.122E-01
DAV:   3    -0.229132976476E+03    0.14379E-03   -0.66329E-04 57440   0.231E-01    0.639E-02
DAV:   4    -0.229132905431E+03    0.71046E-04   -0.20085E-04 59360   0.847E-02    0.220E-02
DAV:   5    -0.229132899087E+03    0.63439E-05   -0.46735E-05 46944   0.308E-02    0.876E-03
DAV:   6    -0.229132899839E+03   -0.75217E-06   -0.11953E-05 55632   0.191E-02    0.770E-03
DAV:   7    -0.229132899402E+03    0.43729E-06   -0.16321E-06 31248   0.133E-02
  21 F= -.22913290E+03 E0= -.22913290E+03  d E =-.408031E-01  mag=     0.0000
       N       E                     dE             d eps       ncg     rms          rms(c)
DAV:   1    -0.229126486386E+03    0.64135E-02   -0.56488E+00 43008   0.149E+01    0.782E-01
DAV:   2    -0.229162056243E+03   -0.35570E-01   -0.46942E-01 43016   0.295E+00    0.599E-01
DAV:   3    -0.229158866473E+03    0.31898E-02   -0.23951E-02 55872   0.136E+00    0.464E-01
DAV:   4    -0.229155644189E+03    0.32223E-02   -0.90037E-03 57744   0.678E-01    0.120E-01
DAV:   5    -0.229155524623E+03    0.11957E-03   -0.17036E-03 58592   0.206E-01    0.745E-02
DAV:   6    -0.229155505985E+03    0.18638E-04   -0.37642E-04 57936   0.159E-01    0.558E-02
DAV:   7    -0.229155482069E+03    0.23916E-04   -0.11280E-04 57664   0.830E-02    0.201E-02
DAV:   8    -0.229155482387E+03   -0.31752E-06   -0.21102E-05 51968   0.266E-02    0.108E-02
DAV:   9    -0.229155484008E+03   -0.16213E-05   -0.10726E-05 56384   0.223E-02    0.967E-03
DAV:  10    -0.229155483309E+03    0.69848E-06   -0.25909E-06 32752   0.165E-02
  22 F= -.22915548E+03 E0= -.22915548E+03  d E =-.225839E-01  mag=     0.0000
       N       E                     dE             d eps       ncg     rms          rms(c)
DAV:   1    -0.229147358829E+03    0.81252E-02   -0.24338E+00 43008   0.977E+00    0.513E-01
DAV:   2    -0.229162712563E+03   -0.15354E-01   -0.20197E-01 43048   0.194E+00    0.397E-01
DAV:   3    -0.229161303879E+03    0.14087E-02   -0.10478E-02 55488   0.900E-01    0.304E-01
DAV:   4    -0.229159918065E+03    0.13858E-02   -0.38444E-03 57792   0.441E-01    0.796E-02
DAV:   5    -0.229159870076E+03    0.47988E-04   -0.75392E-04 59008   0.141E-01    0.529E-02
DAV:   6    -0.229159856273E+03    0.13803E-04   -0.17165E-04 57904   0.109E-01    0.359E-02
DAV:   7    -0.229159846839E+03    0.94338E-05   -0.48251E-05 57520   0.528E-02    0.131E-02
DAV:   8    -0.229159847052E+03   -0.21219E-06   -0.92318E-06 45072   0.179E-02
  23 F= -.22915985E+03 E0= -.22915985E+03  d E =-.269476E-01  mag=     0.0000
       N       E                     dE             d eps       ncg     rms          rms(c)
DAV:   1    -0.229135284738E+03    0.24562E-01   -0.60987E+00 43008   0.171E+01    0.779E-01
DAV:   2    -0.229184468061E+03   -0.49183E-01   -0.57382E-01 42776   0.349E+00    0.788E-01
DAV:   3    -0.229178390595E+03    0.60775E-02   -0.31006E-02 55696   0.159E+00    0.400E-01
DAV:   4    -0.229176076649E+03    0.23139E-02   -0.76450E-03 58560   0.555E-01    0.138E-01
DAV:   5    -0.229175937298E+03    0.13935E-03   -0.16764E-03 56864   0.209E-01    0.772E-02
DAV:   6    -0.229175944620E+03   -0.73226E-05   -0.44833E-04 56416   0.178E-01    0.668E-02
DAV:   7    -0.229175911638E+03    0.32982E-04   -0.15095E-04 57744   0.102E-01    0.223E-02
DAV:   8    -0.229175914260E+03   -0.26221E-05   -0.24403E-05 56480   0.316E-02    0.138E-02
DAV:   9    -0.229175915875E+03   -0.16146E-05   -0.11761E-05 56432   0.280E-02    0.113E-02
DAV:  10    -0.229175915191E+03    0.68433E-06   -0.31852E-06 38320   0.168E-02
  24 F= -.22917592E+03 E0= -.22917592E+03  d E =-.160681E-01  mag=     0.0000
       N       E                     dE             d eps       ncg     rms          rms(c)
DAV:   1    -0.229172264615E+03    0.36513E-02   -0.74714E-01 43008   0.599E+00    0.273E-01
DAV:   2    -0.229178235562E+03   -0.59709E-02   -0.69462E-02 42912   0.123E+00    0.279E-01
DAV:   3    -0.229177472273E+03    0.76329E-03   -0.38525E-03 55728   0.563E-01    0.140E-01
DAV:   4    -0.229177190913E+03    0.28136E-03   -0.92617E-04 58592   0.193E-01    0.486E-02
DAV:   5    -0.229177174897E+03    0.16016E-04   -0.20841E-04 56992   0.736E-02    0.274E-02
DAV:   6    -0.229177175845E+03   -0.94756E-06   -0.55689E-05 56368   0.627E-02    0.233E-02
DAV:   7    -0.229177172033E+03    0.38121E-05   -0.18344E-05 57744   0.354E-02    0.781E-03
DAV:   8    -0.229177172342E+03   -0.30897E-06   -0.22459E-06 31424   0.111E-02
  25 F= -.22917717E+03 E0= -.22917717E+03  d E =-.173253E-01  mag=    -0.0000
       N       E                     dE             d eps       ncg     rms          rms(c)
DAV:   1    -0.229169764894E+03    0.74071E-02   -0.31302E+00 43008   0.110E+01    0.474E-01
DAV:   2    -0.229188567395E+03   -0.18803E-01   -0.23537E-01 43264   0.224E+00    0.374E-01
DAV:   3    -0.229187346080E+03    0.12213E-02   -0.82045E-03 55968   0.753E-01    0.275E-01
DAV:   4    -0.229186012369E+03    0.13337E-02   -0.32914E-03 58560   0.396E-01    0.103E-01
DAV:   5    -0.229185876177E+03    0.13619E-03   -0.11951E-03 53776   0.165E-01    0.383E-02
DAV:   6    -0.229185878550E+03   -0.23727E-05   -0.21136E-04 55936   0.849E-02    0.327E-02
DAV:   7    -0.229185874199E+03    0.43510E-05   -0.66621E-05 57712   0.560E-02    0.191E-02
DAV:   8    -0.229185872926E+03    0.12721E-05   -0.13273E-05 56928   0.252E-02    0.951E-03
DAV:   9    -0.229185873551E+03   -0.62408E-06   -0.45753E-06 44064   0.117E-02
  26 F= -.22918587E+03 E0= -.22918587E+03  d E =-.870121E-02  mag=    -0.0000
       N       E                     dE             d eps       ncg     rms          rms(c)
DAV:   1    -0.229185179990E+03    0.69294E-03   -0.21880E-01 43024   0.292E+00    0.125E-01
DAV:   2    -0.229186490462E+03   -0.13105E-02   -0.16394E-02 43312   0.592E-01    0.100E-01
DAV:   3    -0.229186404341E+03    0.86120E-04   -0.57900E-04 56032   0.201E-01    0.725E-02
DAV:   4    -0.229186310929E+03    0.93412E-04   -0.22638E-04 59840   0.103E-01    0.272E-02
DAV:   5    -0.229186302234E+03    0.86952E-05   -0.84031E-05 52736   0.432E-02    0.995E-03
DAV:   6    -0.229186302532E+03   -0.29818E-06   -0.14609E-05 56128   0.217E-02    0.819E-03
DAV:   7    -0.229186302263E+03    0.26956E-06   -0.33144E-06 37024   0.142E-02
  27 F= -.22918630E+03 E0= -.22918630E+03  d E =-.912992E-02  mag=     0.0000
       N       E                     dE             d eps       ncg     rms          rms(c)
DAV:   1    -0.229170110797E+03    0.16192E-01   -0.34498E+00 43008   0.127E+01    0.496E-01
DAV:   2    -0.229195528272E+03   -0.25417E-01   -0.29824E-01 42752   0.240E+00    0.408E-01
DAV:   3    -0.229194285293E+03    0.12430E-02   -0.12606E-02 55248   0.970E-01    0.287E-01
DAV:   4    -0.229193171230E+03    0.11141E-02   -0.29122E-03 58544   0.405E-01    0.978E-02
DAV:   5    -0.229193112040E+03    0.59190E-04   -0.10639E-03 58304   0.170E-01    0.645E-02
DAV:   6    -0.229193091308E+03    0.20732E-04   -0.26514E-04 57856   0.132E-01    0.393E-02
DAV:   7    -0.229193081611E+03    0.96972E-05   -0.65511E-05 57808   0.539E-02    0.157E-02
DAV:   8    -0.229193083864E+03   -0.22538E-05   -0.17573E-05 56608   0.235E-02    0.103E-02
DAV:   9    -0.229193084221E+03   -0.35692E-06   -0.50285E-06 46912   0.210E-02
  28 F= -.22919308E+03 E0= -.22919308E+03  d E =-.678196E-02  mag=    -0.0000
       N       E                     dE             d eps       ncg     rms          rms(c)
DAV:   1    -0.229191472744E+03    0.16111E-02   -0.30303E-01 43008   0.377E+00    0.147E-01
DAV:   2    -0.229193705263E+03   -0.22325E-02   -0.26127E-02 42792   0.711E-01    0.123E-01
DAV:   3    -0.229193590987E+03    0.11428E-03   -0.11263E-03 55280   0.291E-01    0.847E-02
DAV:   4    -0.229193494358E+03    0.96629E-04   -0.25328E-04 58496   0.119E-01    0.291E-02
DAV:   5    -0.229193489820E+03    0.45383E-05   -0.92649E-05 58304   0.504E-02    0.193E-02
DAV:   6    -0.229193488114E+03    0.17054E-05   -0.23734E-05 57712   0.396E-02    0.117E-02
DAV:   7    -0.229193487285E+03    0.82903E-06   -0.48116E-06 44928   0.160E-02
  29 F= -.22919349E+03 E0= -.22919349E+03  d E =-.718502E-02  mag=     0.0000
       N       E                     dE             d eps       ncg     rms          rms(c)
DAV:   1    -0.229183577743E+03    0.99104E-02   -0.25396E+00 43008   0.940E+00    0.347E-01
DAV:   2    -0.229198782169E+03   -0.15204E-01   -0.17244E-01 43032   0.177E+00    0.268E-01
DAV:   3    -0.229198212229E+03    0.56994E-03   -0.55026E-03 57888   0.590E-01    0.211E-01
DAV:   4    -0.229197574025E+03    0.63820E-03   -0.16759E-03 59296   0.288E-01    0.793E-02
DAV:   5    -0.229197489127E+03    0.84897E-04   -0.68574E-04 50192   0.120E-01    0.296E-02
DAV:   6    -0.229197499917E+03   -0.10790E-04   -0.14613E-04 56864   0.731E-02    0.292E-02
DAV:   7    -0.229197495219E+03    0.46987E-05   -0.40205E-05 57744   0.450E-02    0.151E-02
DAV:   8    -0.229197494698E+03    0.52101E-06   -0.74080E-06 52560   0.172E-02
  30 F= -.22919749E+03 E0= -.22919749E+03  d E =-.400741E-02  mag=     0.0000
       N       E                     dE             d eps       ncg     rms          rms(c)
DAV:   1    -0.229197449697E+03    0.45522E-04   -0.11391E-02 43872   0.630E-01    0.238E-02
DAV:   2    -0.229197518335E+03   -0.68638E-04   -0.77696E-04 43136   0.118E-01    0.182E-02
DAV:   3    -0.229197516206E+03    0.21291E-05   -0.26016E-05 56192   0.410E-02    0.145E-02
DAV:   4    -0.229197513417E+03    0.27887E-05   -0.73837E-06 53808   0.194E-02    0.559E-03
DAV:   5    -0.229197513154E+03    0.26369E-06   -0.30787E-06 35856   0.820E-03
  31 F= -.22919751E+03 E0= -.22919751E+03  d E =-.402587E-02  mag=    -0.0000
       N       E                     dE             d eps       ncg     rms          rms(c)
DAV:   1    -0.229192350047E+03    0.51634E-02   -0.15020E+00 43008   0.749E+00    0.232E-01
DAV:   2    -0.229200572159E+03   -0.82221E-02   -0.90315E-02 43080   0.130E+00    0.191E-01
DAV:   3    -0.229200336960E+03    0.23520E-03   -0.28917E-03 55184   0.440E-01    0.133E-01
DAV:   4    -0.229200083694E+03    0.25327E-03   -0.62297E-04 57784   0.184E-01    0.534E-02
DAV:   5    -0.229200057603E+03    0.26091E-04   -0.31689E-04 48400   0.735E-02    0.191E-02
DAV:   6    -0.229200062405E+03   -0.48020E-05   -0.56894E-05 54912   0.407E-02    0.153E-02
DAV:   7    -0.229200062352E+03    0.53598E-07   -0.15747E-05 57664   0.245E-02    0.982E-03
DAV:   8    -0.229200062016E+03    0.33609E-06   -0.16791E-06 30864   0.120E-02
  32 F= -.22920006E+03 E0= -.22920006E+03  d E =-.254886E-02  mag=    -0.0000
       N       E                     dE             d eps       ncg     rms          rms(c)
DAV:   1    -0.229199722123E+03    0.34023E-03   -0.88139E-02 43120   0.181E+00    0.566E-02
DAV:   2    -0.229200208962E+03   -0.48684E-03   -0.53147E-03 43120   0.317E-01    0.470E-02
DAV:   3    -0.229200194382E+03    0.14580E-04   -0.17122E-04 54432   0.108E-01    0.319E-02
DAV:   4    -0.229200179974E+03    0.14408E-04   -0.36229E-05 57744   0.442E-02    0.131E-02
DAV:   5    -0.229200178581E+03    0.13932E-05   -0.18536E-05 46704   0.181E-02    0.481E-03
DAV:   6    -0.229200178913E+03   -0.33213E-06   -0.29414E-06 33776   0.109E-02
  33 F= -.22920018E+03 E0= -.22920018E+03  d E =-.266576E-02  mag=     0.0000
       N       E                     dE             d eps       ncg     rms          rms(c)
DAV:   1    -0.229196482931E+03    0.36957E-02   -0.78122E-01 44800   0.556E+00    0.184E-01
DAV:   2    -0.229201641751E+03   -0.51588E-02   -0.56615E-02 43040   0.108E+00    0.184E-01
DAV:   3    -0.229201398183E+03    0.24357E-03   -0.21835E-03 56800   0.381E-01    0.101E-01
DAV:   4    -0.229201257158E+03    0.14102E-03   -0.37334E-04 60224   0.133E-01    0.465E-02
DAV:   5    -0.229201240814E+03    0.16343E-04   -0.21809E-04 54368   0.688E-02    0.221E-02
DAV:   6    -0.229201243175E+03   -0.23604E-05   -0.61714E-05 55840   0.565E-02    0.187E-02
DAV:   7    -0.229201240308E+03    0.28664E-05   -0.13196E-05 56240   0.244E-02    0.734E-03
DAV:   8    -0.229201240588E+03   -0.27931E-06   -0.25841E-06 34336   0.940E-03
  34 F= -.22920124E+03 E0= -.22920124E+03  d E =-.106167E-02  mag=     0.0000
       N       E                     dE             d eps       ncg     rms          rms(c)
DAV:   1    -0.229201197352E+03    0.42957E-04   -0.97142E-03 44976   0.621E-01    0.206E-02
DAV:   2    -0.229201261878E+03   -0.64526E-04   -0.70172E-04 42912   0.119E-01    0.206E-02
DAV:   3    -0.229201258510E+03    0.33678E-05   -0.28553E-05 57088   0.438E-02    0.115E-02
DAV:   4    -0.229201256598E+03    0.19119E-05   -0.37087E-06 37176   0.147E-02    0.526E-03
DAV:   5    -0.229201256384E+03    0.21423E-06   -0.48233E-06 36992   0.946E-03
  35 F= -.22920126E+03 E0= -.22920126E+03  d E =-.107747E-02  mag=    -0.0000
       N       E                     dE             d eps       ncg     rms          rms(c)
DAV:   1    -0.229199248838E+03    0.20078E-02   -0.63490E-01 44800   0.453E+00    0.140E-01
DAV:   2    -0.229202170624E+03   -0.29218E-02   -0.32343E-02 44688   0.817E-01    0.139E-01
DAV:   3    -0.229201982306E+03    0.18832E-03   -0.10853E-03 56240   0.269E-01    0.820E-02
DAV:   4    -0.229201869868E+03    0.11244E-03   -0.31955E-04 55648   0.111E-01    0.397E-02
DAV:   5    -0.229201845808E+03    0.24059E-04   -0.19779E-04 50240   0.642E-02    0.169E-02
DAV:   6    -0.229201849445E+03   -0.36364E-05   -0.50480E-05 55872   0.435E-02    0.170E-02
DAV:   7    -0.229201847047E+03    0.23976E-05   -0.10213E-05 56352   0.247E-02    0.745E-03
DAV:   8    -0.229201846964E+03    0.82751E-07   -0.17907E-06 28128   0.887E-03
  36 F= -.22920185E+03 E0= -.22920185E+03  d E =-.590581E-03  mag=    -0.0000
       N       E                     dE             d eps       ncg     rms          rms(c)
DAV:   1    -0.229201755208E+03    0.91839E-04   -0.39700E-02 44800   0.113E+00    0.347E-02
DAV:   2    -0.229201937337E+03   -0.18213E-03   -0.20132E-03 44648   0.204E-01    0.348E-02
DAV:   3    -0.229201924922E+03    0.12415E-04   -0.67498E-05 56384   0.673E-02    0.203E-02
DAV:   4    -0.229201917679E+03    0.72430E-05   -0.19051E-05 55648   0.274E-02    0.973E-03
DAV:   5    -0.229201915858E+03    0.18209E-05   -0.11993E-05 46320   0.157E-02    0.386E-03
DAV:   6    -0.229201915998E+03   -0.13985E-06   -0.24829E-06 35856   0.104E-02
  37 F= -.22920192E+03 E0= -.22920192E+03  d E =-.659614E-03  mag=    -0.0000
       N       E                     dE             d eps       ncg     rms          rms(c)
DAV:   1    -0.229201173336E+03    0.74252E-03   -0.18145E-01 43008   0.273E+00    0.776E-02
DAV:   2    -0.229202336088E+03   -0.11628E-02   -0.12754E-02 43120   0.483E-01    0.550E-02
DAV:   3    -0.229202318455E+03    0.17633E-04   -0.27694E-04 57568   0.112E-01    0.418E-02
DAV:   4    -0.229202296370E+03    0.22085E-04   -0.76802E-05 57584   0.727E-02    0.245E-02
DAV:   5    -0.229202290549E+03    0.58209E-05   -0.60328E-05 58416   0.389E-02    0.879E-03
DAV:   6    -0.229202290007E+03    0.54237E-06   -0.97814E-06 47632   0.166E-02
  38 F= -.22920229E+03 E0= -.22920229E+03  d E =-.374009E-03  mag=     0.0000
       N       E                     dE             d eps       ncg     rms          rms(c)
DAV:   1    -0.229202283862E+03    0.66871E-05   -0.14003E-03 43776   0.239E-01    0.854E-03
DAV:   2    -0.229202293650E+03   -0.97881E-05   -0.10207E-04 43328   0.433E-02    0.625E-03
DAV:   3    -0.229202293467E+03    0.18294E-06   -0.23606E-06 36352   0.136E-02
  39 F= -.22920229E+03 E0= -.22920229E+03  d E =-.377470E-03  mag=    -0.0000
       N       E                     dE             d eps       ncg     rms          rms(c)
DAV:   1    -0.229202088265E+03    0.20539E-03   -0.11703E-01 43008   0.197E+00    0.660E-02
DAV:   2    -0.229202602162E+03   -0.51390E-03   -0.60081E-03 43952   0.346E-01    0.476E-02
DAV:   3    -0.229202585134E+03    0.17028E-04   -0.20027E-04 56736   0.108E-01    0.398E-02
DAV:   4    -0.229202562168E+03    0.22967E-04   -0.64704E-05 56416   0.611E-02    0.163E-02
DAV:   5    -0.229202558515E+03    0.36532E-05   -0.30437E-05 51904   0.246E-02    0.715E-03
DAV:   6    -0.229202558600E+03   -0.84783E-07   -0.57202E-06 42960   0.164E-02
  40 F= -.22920256E+03 E0= -.22920256E+03  d E =-.265132E-03  mag=    -0.0000
       N       E                     dE             d eps       ncg     rms          rms(c)
DAV:   1    -0.229202554915E+03    0.36000E-05   -0.21187E-03 43248   0.265E-01    0.960E-03
DAV:   2    -0.229202564484E+03   -0.95695E-05   -0.11108E-04 44464   0.469E-02    0.627E-03
DAV:   3    -0.229202564236E+03    0.24824E-06   -0.26298E-06 37856   0.139E-02
  41 F= -.22920256E+03 E0= -.22920256E+03  d E =-.270769E-03  mag=     0.0000
       N       E                     dE             d eps       ncg     rms          rms(c)
DAV:   1    -0.229202463417E+03    0.10107E-03   -0.49369E-02 43008   0.130E+00    0.451E-02
DAV:   2    -0.229202725568E+03   -0.26215E-03   -0.28809E-03 45104   0.259E-01    0.549E-02
DAV:   3    -0.229202697467E+03    0.28102E-04   -0.12768E-04 56992   0.963E-02    0.218E-02
DAV:   4    -0.229202688954E+03    0.85124E-05   -0.22682E-05 60016   0.269E-02    0.108E-02
DAV:   5    -0.229202687975E+03    0.97945E-06   -0.13738E-05 46608   0.158E-02    0.396E-03
DAV:   6    -0.229202688303E+03   -0.32771E-06   -0.23387E-06 34128   0.928E-03
  42 F= -.22920269E+03 E0= -.22920269E+03  d E =-.124066E-03  mag=    -0.0000
       N       E                     dE             d eps       ncg     rms          rms(c)
DAV:   1    -0.229202688301E+03   -0.32622E-06   -0.56146E-06 41312   0.152E-02    0.205E-03
DAV:   2    -0.229202688384E+03   -0.83153E-07   -0.42043E-07 23272   0.461E-03
  43 F= -.22920269E+03 E0= -.22920269E+03  d E =-.124148E-03  mag=    -0.0000
       N       E                     dE             d eps       ncg     rms          rms(c)
DAV:   1    -0.229202612907E+03    0.75394E-04   -0.25995E-02 43008   0.103E+00    0.355E-02
DAV:   2    -0.229202782085E+03   -0.16918E-03   -0.19200E-03 43168   0.191E-01    0.307E-02
DAV:   3    -0.229202775448E+03    0.66365E-05   -0.71508E-05 57216   0.694E-02    0.205E-02
DAV:   4    -0.229202769878E+03    0.55706E-05   -0.16554E-05 58288   0.292E-02    0.824E-03
DAV:   5    -0.229202769312E+03    0.56534E-06   -0.77713E-06 44960   0.116E-02
  44 F= -.22920277E+03 E0= -.22920277E+03  d E =-.809281E-04  mag=    -0.0000
       N       E                     dE             d eps       ncg     rms          rms(c)
DAV:   1    -0.229202759231E+03    0.10647E-04   -0.25659E-03 43136   0.323E-01    0.119E-02
DAV:   2    -0.229202776413E+03   -0.17182E-04   -0.19080E-04 43184   0.601E-02    0.102E-02
DAV:   3    -0.229202775629E+03    0.78330E-06   -0.75146E-06 50128   0.227E-02
  45 F= -.22920278E+03 E0= -.22920278E+03  d E =-.872452E-04  mag=    -0.0000
       N       E                     dE             d eps       ncg     rms          rms(c)
DAV:   1    -0.229202717253E+03    0.59160E-04   -0.17882E-02 43008   0.893E-01    0.379E-02
DAV:   2    -0.229202836397E+03   -0.11914E-03   -0.13703E-03 43312   0.178E-01    0.413E-02
DAV:   3    -0.229202818063E+03    0.18335E-04   -0.78444E-05 54336   0.824E-02    0.183E-02
DAV:   4    -0.229202812426E+03    0.56365E-05   -0.19457E-05 58560   0.267E-02    0.697E-03
DAV:   5    -0.229202812122E+03    0.30423E-06   -0.63226E-06 46160   0.129E-02
  46 F= -.22920281E+03 E0= -.22920281E+03  d E =-.364924E-04  mag=     0.0000
       N       E                     dE             d eps       ncg     rms          rms(c)
DAV:   1    -0.229202811614E+03    0.81251E-06   -0.12008E-04 43768   0.741E-02    0.387E-03
DAV:   2    -0.229202812391E+03   -0.77748E-06   -0.96163E-06 44624   0.174E-02
  47 F= -.22920281E+03 E0= -.22920281E+03  d E =-.367617E-04  mag=     0.0000
       N       E                     dE             d eps       ncg     rms          rms(c)
DAV:   1    -0.229202783954E+03    0.27660E-04   -0.96066E-03 44800   0.639E-01    0.227E-02
DAV:   2    -0.229202847308E+03   -0.63354E-04   -0.72113E-04 42984   0.120E-01    0.198E-02
DAV:   3    -0.229202844446E+03    0.28614E-05   -0.26997E-05 53584   0.454E-02    0.129E-02
DAV:   4    -0.229202842131E+03    0.23156E-05   -0.61662E-06 47744   0.187E-02    0.517E-03
DAV:   5    -0.229202841942E+03    0.18893E-06   -0.30527E-06 30048   0.815E-03
  48 F= -.22920284E+03 E0= -.22920284E+03  d E =-.295506E-04  mag=     0.0000
