       N       E                     dE             d eps       ncg     rms          rms(c)
DAV:   1     0.949093771683E+03    0.94909E+03   -0.65106E+04 24800   0.143E+03
DAV:   2    -0.185369750178E+03   -0.11345E+04   -0.11069E+04 29072   0.329E+02
DAV:   3    -0.285203910779E+03   -0.99834E+02   -0.98526E+02 28824   0.109E+02
DAV:   4    -0.289634030303E+03   -0.44301E+01   -0.44141E+01 35792   0.311E+01
DAV:   5    -0.289690623109E+03   -0.56593E-01   -0.56456E-01 29888   0.315E+00    0.444E+01
DAV:   6    -0.261316760841E+03    0.28374E+02   -0.43205E+02 36776   0.762E+01    0.787E+01
DAV:   7    -0.237026347356E+03    0.24290E+02   -0.30242E+02 35056   0.169E+02    0.230E+01
DAV:   8    -0.230830216373E+03    0.61961E+01   -0.32325E+01 31624   0.199E+01    0.183E+01
DAV:   9    -0.223435736285E+03    0.73945E+01   -0.10024E+01 34760   0.200E+01    0.508E+00
DAV:  10    -0.224056112891E+03   -0.62038E+00   -0.10922E+01 32672   0.840E+00    0.122E+01
DAV:  11    -0.223574195962E+03    0.48192E+00   -0.14126E+00 29848   0.322E+00    0.765E+00
DAV:  12    -0.223441717305E+03    0.13248E+00   -0.31401E+00 35496   0.408E+00    0.330E+00
DAV:  13    -0.223376116271E+03    0.65601E-01   -0.39389E-01 26304   0.212E+00    0.307E+00
DAV:  14    -0.223312287772E+03    0.63828E-01   -0.21026E-01 30592   0.156E+00    0.190E+00
DAV:  15    -0.223300519524E+03    0.11768E-01   -0.30301E-01 32200   0.112E+00    0.997E-01
DAV:  16    -0.223300244984E+03    0.27454E-03   -0.29945E-02 30808   0.555E-01    0.599E-01
DAV:  17    -0.223304624518E+03   -0.43795E-02   -0.20545E-02 32824   0.284E-01    0.789E-01
DAV:  18    -0.223303412909E+03    0.12116E-02   -0.66784E-03 34528   0.182E-01    0.678E-01
DAV:  19    -0.223303826853E+03   -0.41394E-03   -0.20171E-02 30912   0.307E-01    0.365E-01
DAV:  20    -0.223310878884E+03   -0.70520E-02   -0.36211E-02 33112   0.502E-01    0.116E+00
DAV:  21    -0.223306434207E+03    0.44447E-02   -0.95346E-02 35456   0.648E-01    0.522E-01
DAV:  22    -0.223308171517E+03   -0.17373E-02   -0.38144E-03 29680   0.174E-01    0.728E-01
DAV:  23    -0.223308951417E+03   -0.77990E-03   -0.52575E-04 35096   0.576E-02    0.830E-01
DAV:  24    -0.223309179674E+03   -0.22826E-03   -0.29507E-04 33608   0.521E-02    0.861E-01
DAV:  25    -0.223307135126E+03    0.20445E-02   -0.33168E-03 33496   0.134E-01    0.552E-01
DAV:  26    -0.223306705194E+03    0.42993E-03   -0.13398E-03 33728   0.803E-02    0.426E-01
DAV:  27    -0.223306226407E+03    0.47879E-03   -0.19904E-03 34200   0.936E-02    0.365E-01
DAV:  28    -0.223305585687E+03    0.64072E-03   -0.23621E-03 32384   0.111E-01    0.123E-01
DAV:  29    -0.223305497512E+03    0.88175E-04   -0.11010E-03 33448   0.731E-02    0.614E-02
DAV:  30    -0.223305467230E+03    0.30282E-04   -0.11160E-04 30840   0.312E-02    0.724E-02
DAV:  31    -0.223305463224E+03    0.40055E-05   -0.13247E-04 33680   0.287E-02    0.825E-02
DAV:  32    -0.223305519488E+03   -0.56264E-04   -0.11152E-03 33488   0.582E-02    0.416E-02
DAV:  33    -0.223305547646E+03   -0.28158E-04   -0.12225E-04 27080   0.238E-02    0.615E-02
DAV:  34    -0.223305486936E+03    0.60710E-04   -0.27308E-04 32272   0.331E-02    0.517E-02
DAV:  35    -0.223305497993E+03   -0.11057E-04   -0.35362E-04 31736   0.289E-02    0.419E-02
DAV:  36    -0.223305506060E+03   -0.80670E-05   -0.17292E-04 31664   0.237E-02    0.516E-02
DAV:  37    -0.223305508960E+03   -0.29000E-05   -0.27922E-05 27016   0.111E-02    0.512E-02
DAV:  38    -0.223305486312E+03    0.22647E-04   -0.13347E-04 31552   0.194E-02    0.432E-02
DAV:  39    -0.223305481625E+03    0.46878E-05   -0.15282E-04 32400   0.197E-02    0.286E-02
DAV:  40    -0.223305482333E+03   -0.70820E-06   -0.70605E-06 21064   0.896E-03
   1 F= -.22330548E+03 E0= -.22330548E+03  d E =-.223305E+03  mag=    -0.0028
       N       E                     dE             d eps       ncg     rms          rms(c)
DAV:   1    -0.219161237279E+03    0.41442E+01   -0.16501E+03 26192   0.216E+02    0.776E+00
DAV:   2    -0.230229381716E+03   -0.11068E+02   -0.12676E+02 26824   0.482E+01    0.111E+01
DAV:   3    -0.229754582918E+03    0.47480E+00   -0.19166E+01 35176   0.156E+01    0.827E+00
DAV:   4    -0.228937980719E+03    0.81660E+00   -0.13714E+00 34880   0.675E+00    0.434E+00
DAV:   5    -0.228554408675E+03    0.38357E+00   -0.23136E+00 27200   0.556E+00    0.183E+00
DAV:   6    -0.228524754594E+03    0.29654E-01   -0.50052E-01 30824   0.340E+00    0.100E+00
DAV:   7    -0.228521185729E+03    0.35689E-02   -0.14493E-01 28096   0.137E+00    0.449E-01
DAV:   8    -0.228520768261E+03    0.41747E-03   -0.29852E-02 27808   0.652E-01    0.361E-01
DAV:   9    -0.228520173111E+03    0.59515E-03   -0.11928E-02 30616   0.370E-01    0.118E-01
DAV:  10    -0.228520205714E+03   -0.32603E-04   -0.17586E-03 29784   0.158E-01    0.570E-02
DAV:  11    -0.228520236641E+03   -0.30926E-04   -0.47306E-04 30536   0.795E-02    0.341E-02
DAV:  12    -0.228520244513E+03   -0.78726E-05   -0.14727E-04 28288   0.404E-02    0.171E-02
DAV:  13    -0.228520250185E+03   -0.56722E-05   -0.36441E-05 29352   0.185E-02    0.153E-02
DAV:  14    -0.228520257249E+03   -0.70634E-05   -0.41337E-05 31632   0.138E-02    0.171E-02
DAV:  15    -0.228520254977E+03    0.22715E-05   -0.55754E-06 17392   0.775E-03    0.158E-02
DAV:  16    -0.228520245320E+03    0.96571E-05   -0.19826E-04 33784   0.271E-02    0.116E-02
DAV:  17    -0.228520244208E+03    0.11126E-05   -0.81874E-05 33192   0.175E-02    0.636E-03
DAV:  18    -0.228520244976E+03   -0.76807E-06   -0.26820E-05 30792   0.157E-02    0.480E-03
DAV:  19    -0.228520244483E+03    0.49314E-06   -0.15956E-05 20992   0.966E-03    0.285E-03
DAV:  20    -0.228520244463E+03    0.19914E-07   -0.15499E-06 15872   0.556E-03
   2 F= -.22852024E+03 E0= -.22852024E+03  d E =-.521476E+01  mag=    -0.0000
       N       E                     dE             d eps       ncg     rms          rms(c)
DAV:   1    -0.228588805959E+03   -0.68561E-01   -0.65444E+01 25024   0.478E+01    0.195E+00
DAV:   2    -0.228935418075E+03   -0.34661E+00   -0.44536E+00 26680   0.107E+01    0.248E+00
DAV:   3    -0.228952359225E+03   -0.16941E-01   -0.96090E-01 34800   0.431E+00    0.243E+00
DAV:   4    -0.228879856547E+03    0.72503E-01   -0.24261E-01 34656   0.195E+00    0.723E-01
DAV:   5    -0.228873987305E+03    0.58692E-02   -0.12352E-01 28016   0.112E+00    0.694E-01
DAV:   6    -0.228869984089E+03    0.40032E-02   -0.57799E-02 29728   0.684E-01    0.258E-01
DAV:   7    -0.228869799189E+03    0.18490E-03   -0.74798E-03 28864   0.286E-01    0.949E-02
DAV:   8    -0.228869752995E+03    0.46193E-04   -0.10230E-03 27416   0.126E-01    0.601E-02
DAV:   9    -0.228869826516E+03   -0.73521E-04   -0.27011E-04 30952   0.646E-02    0.292E-02
DAV:  10    -0.228869770857E+03    0.55659E-04   -0.96067E-05 32544   0.370E-02    0.227E-02
DAV:  11    -0.228869834079E+03   -0.63222E-04   -0.10333E-04 31232   0.230E-02    0.310E-02
DAV:  12    -0.228869890939E+03   -0.56860E-04   -0.15515E-04 33048   0.228E-02    0.397E-02
DAV:  13    -0.228869817910E+03    0.73029E-04   -0.72426E-05 27256   0.163E-02    0.102E-02
DAV:  14    -0.228869811533E+03    0.63770E-05   -0.61255E-06 22784   0.824E-03    0.745E-03
DAV:  15    -0.228869799918E+03    0.11615E-04   -0.41128E-06 15744   0.632E-03    0.204E-03
DAV:  16    -0.228869801303E+03   -0.13847E-05   -0.55934E-07 15160   0.443E-03    0.140E-03
DAV:  17    -0.228869799951E+03    0.13513E-05   -0.26518E-07 15136   0.232E-03    0.837E-04
DAV:  18    -0.228869800001E+03   -0.49990E-07   -0.13358E-07 15136   0.176E-03
   3 F= -.22886980E+03 E0= -.22886980E+03  d E =-.556432E+01  mag=    -0.0000
       N       E                     dE             d eps       ncg     rms          rms(c)
DAV:   1    -0.227085814885E+03    0.17840E+01   -0.42727E+02 25024   0.123E+02    0.422E+00
DAV:   2    -0.229685814970E+03   -0.26000E+01   -0.31009E+01 26704   0.238E+01    0.314E+00
DAV:   3    -0.229610735901E+03    0.75079E-01   -0.11806E+00 30408   0.587E+00    0.242E+00
DAV:   4    -0.229568547171E+03    0.42189E-01   -0.74616E-01 35240   0.397E+00    0.210E+00
DAV:   5    -0.229524321757E+03    0.44225E-01   -0.32226E-01 34672   0.267E+00    0.777E-01
DAV:   6    -0.229515796305E+03    0.85255E-02   -0.60940E-02 29856   0.107E+00    0.441E-01
DAV:   7    -0.229513775179E+03    0.20211E-02   -0.33968E-02 28464   0.702E-01    0.217E-01
DAV:   8    -0.229514191528E+03   -0.41635E-03   -0.51049E-03 28752   0.292E-01    0.122E-01
DAV:   9    -0.229514262733E+03   -0.71205E-04   -0.69265E-04 27744   0.111E-01    0.513E-02
DAV:  10    -0.229514291393E+03   -0.28660E-04   -0.13811E-04 28480   0.587E-02    0.198E-02
DAV:  11    -0.229514293810E+03   -0.24161E-05   -0.47639E-05 28896   0.278E-02    0.101E-02
DAV:  12    -0.229514293815E+03   -0.52933E-08   -0.11417E-05 27296   0.132E-02    0.508E-03
DAV:  13    -0.229514294080E+03   -0.26481E-06   -0.23193E-06 15280   0.697E-03
   4 F= -.22951429E+03 E0= -.22951429E+03  d E =-.644494E+00  mag=    -0.0000
       N       E                     dE             d eps       ncg     rms          rms(c)
DAV:   1    -0.229463451446E+03    0.50842E-01   -0.39056E+01 25024   0.386E+01    0.151E+00
DAV:   2    -0.229733241709E+03   -0.26979E+00   -0.30277E+00 26432   0.894E+00    0.241E+00
DAV:   3    -0.229705827618E+03    0.27414E-01   -0.50439E-01 34752   0.307E+00    0.104E+00
DAV:   4    -0.229687854747E+03    0.17973E-01   -0.62689E-02 34704   0.106E+00    0.477E-01
DAV:   5    -0.229686757039E+03    0.10977E-02   -0.49121E-02 27456   0.770E-01    0.329E-01
DAV:   6    -0.229685657349E+03    0.10997E-02   -0.14254E-02 29776   0.432E-01    0.124E-01
DAV:   7    -0.229685550013E+03    0.10734E-03   -0.23230E-03 27216   0.175E-01    0.634E-02
DAV:   8    -0.229685602987E+03   -0.52974E-04   -0.43074E-04 29112   0.849E-02    0.331E-02
DAV:   9    -0.229685616458E+03   -0.13471E-04   -0.46415E-05 27376   0.325E-02    0.181E-02
DAV:  10    -0.229685614691E+03    0.17670E-05   -0.29302E-05 28016   0.218E-02    0.434E-03
DAV:  11    -0.229685615443E+03   -0.75198E-06   -0.76418E-06 25808   0.116E-02
   5 F= -.22968562E+03 E0= -.22968562E+03  d E =-.815815E+00  mag=    -0.0000
       N       E                     dE             d eps       ncg     rms          rms(c)
DAV:   1    -0.228358696234E+03    0.13269E+01   -0.17240E+02 25024   0.903E+01    0.312E+00
DAV:   2    -0.229919464665E+03   -0.15608E+01   -0.18613E+01 26080   0.185E+01    0.190E+00
DAV:   3    -0.229892171288E+03    0.27293E-01   -0.38049E-01 32320   0.316E+00    0.148E+00
DAV:   4    -0.229881471842E+03    0.10699E-01   -0.18997E-01 34880   0.273E+00    0.125E+00
DAV:   5    -0.229867792306E+03    0.13680E-01   -0.99361E-02 34880   0.173E+00    0.346E-01
DAV:   6    -0.229867034777E+03    0.75753E-03   -0.98308E-03 30192   0.513E-01    0.152E-01
DAV:   7    -0.229867306525E+03   -0.27175E-03   -0.28852E-03 29376   0.222E-01    0.806E-02
DAV:   8    -0.229867336063E+03   -0.29539E-04   -0.49983E-04 28736   0.992E-02    0.296E-02
DAV:   9    -0.229867343191E+03   -0.71273E-05   -0.10960E-04 27568   0.523E-02    0.154E-02
DAV:  10    -0.229867341547E+03    0.16434E-05   -0.26087E-05 29136   0.231E-02    0.779E-03
DAV:  11    -0.229867342294E+03   -0.74709E-06   -0.94031E-06 26832   0.117E-02
   6 F= -.22986734E+03 E0= -.22986734E+03  d E =-.181727E+00  mag=     0.0000
       N       E                     dE             d eps       ncg     rms          rms(c)
DAV:   1    -0.229767080845E+03    0.10026E+00   -0.21830E+01 25024   0.340E+01    0.131E+00
DAV:   2    -0.229992342358E+03   -0.22526E+00   -0.25367E+00 26272   0.665E+00    0.227E+00
DAV:   3    -0.229955349720E+03    0.36993E-01   -0.40074E-01 34352   0.316E+00    0.758E-01
DAV:   4    -0.229948229454E+03    0.71203E-02   -0.25245E-02 34512   0.830E-01    0.290E-01
DAV:   5    -0.229947383075E+03    0.84638E-03   -0.91690E-03 28768   0.387E-01    0.124E-01
DAV:   6    -0.229947461309E+03   -0.78234E-04   -0.16286E-03 29520   0.186E-01    0.644E-02
DAV:   7    -0.229947476599E+03   -0.15290E-04   -0.35236E-04 29296   0.769E-02    0.310E-02
DAV:   8    -0.229947480590E+03   -0.39913E-05   -0.39925E-05 29168   0.308E-02    0.127E-02
DAV:   9    -0.229947481897E+03   -0.13072E-05   -0.13386E-05 26720   0.175E-02    0.444E-03
DAV:  10    -0.229947482144E+03   -0.24660E-06   -0.33622E-06 20736   0.834E-03
   7 F= -.22994748E+03 E0= -.22994748E+03  d E =-.261867E+00  mag=    -0.0000
       N       E                     dE             d eps       ncg     rms          rms(c)
DAV:   1    -0.229990765204E+03   -0.43283E-01   -0.48230E+01 25024   0.354E+01    0.144E+00
DAV:   2    -0.230163385880E+03   -0.17262E+00   -0.19487E+00 29072   0.699E+00    0.223E+00
DAV:   3    -0.230106423992E+03    0.56962E-01   -0.19284E-01 33744   0.327E+00    0.671E-01
DAV:   4    -0.230096480484E+03    0.99435E-02   -0.36952E-02 34304   0.959E-01    0.268E-01
DAV:   5    -0.230095460545E+03    0.10199E-02   -0.11290E-02 27248   0.415E-01    0.109E-01
DAV:   6    -0.230095575166E+03   -0.11462E-03   -0.21452E-03 29856   0.180E-01    0.658E-02
DAV:   7    -0.230095577338E+03   -0.21723E-05   -0.22501E-04 27536   0.663E-02    0.376E-02
DAV:   8    -0.230095584777E+03   -0.74384E-05   -0.72498E-05 28032   0.366E-02    0.155E-02
DAV:   9    -0.230095583480E+03    0.12971E-05   -0.13563E-05 28712   0.189E-02    0.666E-03
DAV:  10    -0.230095583420E+03    0.59499E-07   -0.75059E-06 26680   0.107E-02
   8 F= -.23009558E+03 E0= -.23009558E+03  d E =-.148101E+00  mag=     0.0000
       N       E                     dE             d eps       ncg     rms          rms(c)
DAV:   1    -0.230095498351E+03    0.85129E-04   -0.31613E+00 25024   0.910E+00    0.385E-01
DAV:   2    -0.230106831210E+03   -0.11333E-01   -0.12861E-01 28720   0.185E+00    0.609E-01
DAV:   3    -0.230102806946E+03    0.40243E-02   -0.15596E-02 33680   0.911E-01    0.173E-01
DAV:   4    -0.230102161571E+03    0.64538E-03   -0.23377E-03 34640   0.252E-01    0.666E-02
DAV:   5    -0.230102104514E+03    0.57057E-04   -0.68250E-04 27296   0.101E-01    0.269E-02
DAV:   6    -0.230102112871E+03   -0.83575E-05   -0.12533E-04 30304   0.431E-02    0.161E-02
DAV:   7    -0.230102113335E+03   -0.46319E-06   -0.12270E-05 27344   0.159E-02    0.917E-03
DAV:   8    -0.230102114001E+03   -0.66689E-06   -0.42387E-06 26336   0.917E-03
   9 F= -.23010211E+03 E0= -.23010211E+03  d E =-.154632E+00  mag=    -0.0000
       N       E                     dE             d eps       ncg     rms          rms(c)
DAV:   1    -0.230067876683E+03    0.34237E-01   -0.29435E+01 25024   0.293E+01    0.927E-01
DAV:   2    -0.230169171324E+03   -0.10129E+00   -0.12324E+00 26048   0.473E+00    0.669E-01
DAV:   3    -0.230164609625E+03    0.45617E-02   -0.43994E-02 34928   0.139E+00    0.627E-01
DAV:   4    -0.230159662087E+03    0.49475E-02   -0.18303E-02 35056   0.895E-01    0.288E-01
DAV:   5    -0.230157928124E+03    0.17340E-02   -0.10141E-02 30656   0.447E-01    0.951E-02
DAV:   6    -0.230157931943E+03   -0.38189E-05   -0.19147E-03 27536   0.188E-01    0.713E-02
DAV:   7    -0.230157913111E+03    0.18831E-04   -0.67384E-04 29056   0.945E-02    0.405E-02
DAV:   8    -0.230157909141E+03    0.39706E-05   -0.10451E-04 28672   0.464E-02    0.204E-02
DAV:   9    -0.230157910002E+03   -0.86155E-06   -0.34931E-05 27200   0.244E-02    0.100E-02
DAV:  10    -0.230157909472E+03    0.52985E-06   -0.73870E-06 27568   0.126E-02
  10 F= -.23015791E+03 E0= -.23015791E+03  d E =-.557955E-01  mag=     0.0000
       N       E                     dE             d eps       ncg     rms          rms(c)
DAV:   1    -0.230157842111E+03    0.67891E-04   -0.69220E-02 25312   0.142E+00    0.440E-02
DAV:   2    -0.230158079573E+03   -0.23746E-03   -0.28977E-03 26128   0.230E-01    0.308E-02
DAV:   3    -0.230158067237E+03    0.12336E-04   -0.86107E-05 34896   0.579E-02    0.266E-02
DAV:   4    -0.230158059256E+03    0.79806E-05   -0.44180E-05 35232   0.435E-02    0.162E-02
DAV:   5    -0.230158054805E+03    0.44510E-05   -0.25465E-05 33456   0.240E-02    0.537E-03
DAV:   6    -0.230158054410E+03    0.39513E-06   -0.39354E-06 22560   0.921E-03
  11 F= -.23015805E+03 E0= -.23015805E+03  d E =-.559404E-01  mag=     0.0000
       N       E                     dE             d eps       ncg     rms          rms(c)
DAV:   1    -0.230113288074E+03    0.44767E-01   -0.85978E+00 25024   0.195E+01    0.767E-01
DAV:   2    -0.230184160225E+03   -0.70872E-01   -0.74915E-01 27824   0.404E+00    0.120E+00
DAV:   3    -0.230170997208E+03    0.13163E-01   -0.67212E-02 34048   0.173E+00    0.385E-01
DAV:   4    -0.230168719681E+03    0.22775E-02   -0.73747E-03 34960   0.471E-01    0.183E-01
DAV:   5    -0.230168306684E+03    0.41300E-03   -0.30439E-03 27040   0.239E-01    0.610E-02
DAV:   6    -0.230168338519E+03   -0.31836E-04   -0.66411E-04 29104   0.105E-01    0.332E-02
DAV:   7    -0.230168344746E+03   -0.62267E-05   -0.93814E-05 28896   0.382E-02    0.195E-02
DAV:   8    -0.230168345515E+03   -0.76872E-06   -0.14125E-05 29168   0.180E-02    0.948E-03
DAV:   9    -0.230168346154E+03   -0.63923E-06   -0.65959E-06 26176   0.120E-02
  12 F= -.23016835E+03 E0= -.23016835E+03  d E =-.102917E-01  mag=     0.0000
       N       E                     dE             d eps       ncg     rms          rms(c)
DAV:   1    -0.230165787357E+03    0.25582E-02   -0.70587E-01 25024   0.560E+00    0.208E-01
DAV:   2    -0.230171262770E+03   -0.54754E-02   -0.59172E-02 26336   0.109E+00    0.287E-01
DAV:   3    -0.230170489081E+03    0.77369E-03   -0.39613E-03 33984   0.445E-01    0.110E-01
DAV:   4    -0.230170306192E+03    0.18289E-03   -0.59651E-04 35104   0.140E-01    0.506E-02
DAV:   5    -0.230170277217E+03    0.28975E-04   -0.24633E-04 27168   0.679E-02    0.163E-02
DAV:   6    -0.230170279990E+03   -0.27730E-05   -0.50268E-05 29472   0.293E-02    0.946E-03
DAV:   7    -0.230170280623E+03   -0.63304E-06   -0.76037E-06 25952   0.108E-02
  13 F= -.23017028E+03 E0= -.23017028E+03  d E =-.122262E-01  mag=     0.0000
       N       E                     dE             d eps       ncg     rms          rms(c)
DAV:   1    -0.230166990093E+03    0.32899E-02   -0.20238E+00 25024   0.854E+00    0.363E-01
DAV:   2    -0.230177812908E+03   -0.10823E-01   -0.13508E-01 26432   0.162E+00    0.313E-01
DAV:   3    -0.230177145506E+03    0.66740E-03   -0.81598E-03 33696   0.630E-01    0.250E-01
DAV:   4    -0.230176219983E+03    0.92552E-03   -0.24404E-03 34832   0.313E-01    0.904E-02
DAV:   5    -0.230176101515E+03    0.11847E-03   -0.12560E-03 28288   0.133E-01    0.366E-02
DAV:   6    -0.230176088322E+03    0.13193E-04   -0.17626E-04 29216   0.615E-02    0.204E-02
DAV:   7    -0.230176090336E+03   -0.20139E-05   -0.72965E-05 29056   0.296E-02    0.118E-02
DAV:   8    -0.230176090038E+03    0.29822E-06   -0.10564E-05 31296   0.148E-02    0.587E-03
DAV:   9    -0.230176090357E+03   -0.31908E-06   -0.33721E-06 21744   0.785E-03
  14 F= -.23017609E+03 E0= -.23017609E+03  d E =-.580973E-02  mag=    -0.0000
       N       E                     dE             d eps       ncg     rms          rms(c)
DAV:   1    -0.230176090200E+03   -0.16228E-06   -0.12449E-06 15472   0.657E-03    0.150E-03
DAV:   2    -0.230176090252E+03   -0.51889E-07   -0.84118E-07 15232   0.388E-03
  15 F= -.23017609E+03 E0= -.23017609E+03  d E =-.580963E-02  mag=     0.0000
       N       E                     dE             d eps       ncg     rms          rms(c)
DAV:   1    -0.230173612605E+03    0.24776E-02   -0.13372E+00 25024   0.729E+00    0.231E-01
DAV:   2    -0.230181553193E+03   -0.79406E-02   -0.90496E-02 26080   0.138E+00    0.251E-01
DAV:   3    -0.230181079854E+03    0.47334E-03   -0.41664E-03 33536   0.454E-01    0.129E-01
DAV:   4    -0.230180779809E+03    0.30004E-03   -0.72048E-04 35904   0.168E-01    0.518E-02
DAV:   5    -0.230180754902E+03    0.24907E-04   -0.37998E-04 27936   0.795E-02    0.186E-02
DAV:   6    -0.230180756161E+03   -0.12593E-05   -0.56391E-05 27280   0.357E-02    0.114E-02
DAV:   7    -0.230180757867E+03   -0.17053E-05   -0.15624E-05 27488   0.146E-02    0.688E-03
DAV:   8    -0.230180757600E+03    0.26627E-06   -0.20824E-06 16912   0.793E-03
  16 F= -.23018076E+03 E0= -.23018076E+03  d E =-.466735E-02  mag=     0.0000
       N       E                     dE             d eps       ncg     rms          rms(c)
DAV:   1    -0.230175052269E+03    0.57056E-02   -0.13610E+00 25024   0.736E+00    0.234E-01
DAV:   2    -0.230183136202E+03   -0.80839E-02   -0.92174E-02 26112   0.139E+00    0.254E-01
DAV:   3    -0.230182650095E+03    0.48611E-03   -0.42409E-03 33600   0.460E-01    0.130E-01
DAV:   4    -0.230182346338E+03    0.30376E-03   -0.72444E-04 35904   0.169E-01    0.524E-02
DAV:   5    -0.230182320947E+03    0.25392E-04   -0.39022E-04 27968   0.807E-02    0.188E-02
DAV:   6    -0.230182322145E+03   -0.11979E-05   -0.57700E-05 27264   0.361E-02    0.116E-02
DAV:   7    -0.230182323905E+03   -0.17599E-05   -0.16524E-05 27504   0.149E-02    0.699E-03
DAV:   8    -0.230182323623E+03    0.28179E-06   -0.21809E-06 17056   0.812E-03
  17 F= -.23018232E+03 E0= -.23018232E+03  d E =-.623337E-02  mag=     0.0000
       N       E                     dE             d eps       ncg     rms          rms(c)
DAV:   1    -0.230172648760E+03    0.96751E-02   -0.14250E+00 25024   0.881E+00    0.260E-01
DAV:   2    -0.230185277108E+03   -0.12628E-01   -0.14247E-01 25840   0.147E+00    0.141E-01
DAV:   3    -0.230185152773E+03    0.12434E-03   -0.21768E-03 31184   0.233E-01    0.788E-02
DAV:   4    -0.230185136054E+03    0.16719E-04   -0.64951E-04 34672   0.132E-01    0.581E-02
DAV:   5    -0.230185120161E+03    0.15893E-04   -0.27032E-04 33728   0.107E-01    0.364E-02
DAV:   6    -0.230185109896E+03    0.10265E-04   -0.43340E-05 34464   0.461E-02    0.121E-02
DAV:   7    -0.230185110891E+03   -0.99437E-06   -0.95909E-06 26784   0.139E-02
  18 F= -.23018511E+03 E0= -.23018511E+03  d E =-.278727E-02  mag=     0.0000
       N       E                     dE             d eps       ncg     rms          rms(c)
DAV:   1    -0.230184898291E+03    0.21161E-03   -0.29531E-02 25392   0.127E+00    0.375E-02
DAV:   2    -0.230185161168E+03   -0.26288E-03   -0.29615E-03 26048   0.213E-01    0.205E-02
DAV:   3    -0.230185158953E+03    0.22151E-05   -0.46590E-05 32400   0.347E-02    0.118E-02
DAV:   4    -0.230185159031E+03   -0.77818E-07   -0.13733E-05 33920   0.212E-02    0.116E-02
DAV:   5    -0.230185157999E+03    0.10317E-05   -0.55513E-06 23104   0.180E-02    0.414E-03
DAV:   6    -0.230185157853E+03    0.14693E-06   -0.11410E-06 15232   0.706E-03
  19 F= -.23018516E+03 E0= -.23018516E+03  d E =-.283423E-02  mag=     0.0000
       N       E                     dE             d eps       ncg     rms          rms(c)
DAV:   1    -0.230184620180E+03    0.53782E-03   -0.46923E-01 25024   0.400E+00    0.164E-01
DAV:   2    -0.230186810819E+03   -0.21906E-02   -0.26949E-02 26048   0.719E-01    0.151E-01
DAV:   3    -0.230186634843E+03    0.17598E-03   -0.20787E-03 32528   0.336E-01    0.113E-01
DAV:   4    -0.230186468300E+03    0.16654E-03   -0.46093E-04 34944   0.134E-01    0.361E-02
DAV:   5    -0.230186448856E+03    0.19445E-04   -0.18754E-04 27360   0.534E-02    0.139E-02
DAV:   6    -0.230186450380E+03   -0.15239E-05   -0.29358E-05 30256   0.248E-02    0.862E-03
DAV:   7    -0.230186450559E+03   -0.17972E-06   -0.71193E-06 26080   0.103E-02
  20 F= -.23018645E+03 E0= -.23018645E+03  d E =-.129271E-02  mag=     0.0000
       N       E                     dE             d eps       ncg     rms          rms(c)
DAV:   1    -0.230186450666E+03   -0.28634E-06   -0.50466E-06 26112   0.139E-02    0.224E-03
DAV:   2    -0.230186450760E+03   -0.93718E-07   -0.48647E-07 15232   0.358E-03
  21 F= -.23018645E+03 E0= -.23018645E+03  d E =-.129291E-02  mag=    -0.0000
       N       E                     dE             d eps       ncg     rms          rms(c)
DAV:   1    -0.230186507793E+03   -0.57127E-04   -0.79076E-02 25056   0.181E+00    0.704E-02
DAV:   2    -0.230187018398E+03   -0.51060E-03   -0.61267E-03 26080   0.324E-01    0.609E-02
DAV:   3    -0.230186991823E+03    0.26574E-04   -0.30094E-04 33936   0.129E-01    0.476E-02
DAV:   4    -0.230186959968E+03    0.31855E-04   -0.92158E-05 34912   0.609E-02    0.151E-02
DAV:   5    -0.230186956651E+03    0.33177E-05   -0.26366E-05 27296   0.204E-02    0.523E-03
DAV:   6    -0.230186956704E+03   -0.53618E-07   -0.36766E-06 21328   0.892E-03
  22 F= -.23018696E+03 E0= -.23018696E+03  d E =-.505944E-03  mag=    -0.0000
       N       E                     dE             d eps       ncg     rms          rms(c)
DAV:   1    -0.230186857853E+03    0.98798E-04   -0.34099E-02 25056   0.119E+00    0.463E-02
DAV:   2    -0.230187078327E+03   -0.22047E-03   -0.26389E-03 26080   0.212E-01    0.391E-02
DAV:   3    -0.230187067619E+03    0.10709E-04   -0.12574E-04 33904   0.833E-02    0.315E-02
DAV:   4    -0.230187054009E+03    0.13609E-04   -0.40417E-05 34912   0.406E-02    0.998E-03
DAV:   5    -0.230187052571E+03    0.14381E-05   -0.11127E-05 27328   0.134E-02    0.351E-03
DAV:   6    -0.230187052589E+03   -0.18322E-07   -0.14865E-06 16272   0.583E-03
  23 F= -.23018705E+03 E0= -.23018705E+03  d E =-.601830E-03  mag=    -0.0000
       N       E                     dE             d eps       ncg     rms          rms(c)
DAV:   1    -0.230186958082E+03    0.94489E-04   -0.55764E-02 25024   0.152E+00    0.465E-02
DAV:   2    -0.230187296259E+03   -0.33818E-03   -0.39508E-03 26048   0.264E-01    0.374E-02
DAV:   3    -0.230187287629E+03    0.86303E-05   -0.13694E-04 34496   0.711E-02    0.314E-02
DAV:   4    -0.230187275806E+03    0.11823E-04   -0.46340E-05 34560   0.436E-02    0.162E-02
DAV:   5    -0.230187272131E+03    0.36754E-05   -0.26266E-05 30240   0.239E-02    0.526E-03
DAV:   6    -0.230187271954E+03    0.17661E-06   -0.42364E-06 21424   0.966E-03
  24 F= -.23018727E+03 E0= -.23018727E+03  d E =-.219365E-03  mag=    -0.0000
       N       E                     dE             d eps       ncg     rms          rms(c)
DAV:   1    -0.230187271962E+03    0.16874E-06   -0.44619E-05 27136   0.418E-02    0.237E-03
DAV:   2    -0.230187272239E+03   -0.27742E-06   -0.32900E-06 19280   0.791E-03
  25 F= -.23018727E+03 E0= -.23018727E+03  d E =-.219650E-03  mag=    -0.0000
       N       E                     dE             d eps       ncg     rms          rms(c)
DAV:   1    -0.230187301674E+03   -0.29712E-04   -0.30853E-02 25024   0.942E-01    0.393E-02
DAV:   2    -0.230187402995E+03   -0.10132E-03   -0.14805E-03 26080   0.169E-01    0.260E-02
DAV:   3    -0.230187389536E+03    0.13459E-04   -0.58606E-05 34064   0.483E-02    0.221E-02
DAV:   4    -0.230187385653E+03    0.38827E-05   -0.42062E-05 34816   0.403E-02    0.161E-02
DAV:   5    -0.230187381708E+03    0.39453E-05   -0.14681E-05 34784   0.230E-02    0.379E-03
DAV:   6    -0.230187381599E+03    0.10826E-06   -0.19464E-06 19216   0.692E-03
  26 F= -.23018738E+03 E0= -.23018738E+03  d E =-.109360E-03  mag=    -0.0000
       N       E                     dE             d eps       ncg     rms          rms(c)
DAV:   1    -0.230187381802E+03   -0.94706E-07   -0.10925E-04 26144   0.566E-02    0.252E-03
DAV:   2    -0.230187382038E+03   -0.23602E-06   -0.49592E-06 23008   0.103E-02
  27 F= -.23018738E+03 E0= -.23018738E+03  d E =-.109799E-03  mag=     0.0000
       N       E                     dE             d eps       ncg     rms          rms(c)
DAV:   1    -0.230187395923E+03   -0.14121E-04   -0.88905E-03 25056   0.581E-01    0.236E-02
DAV:   2    -0.230187444031E+03   -0.48107E-04   -0.59417E-04 26112   0.101E-01    0.203E-02
DAV:   3    -0.230187441057E+03    0.29735E-05   -0.30516E-05 34544   0.394E-02    0.162E-02
DAV:   4    -0.230187436971E+03    0.40869E-05   -0.10932E-05 31984   0.205E-02    0.551E-03
DAV:   5    -0.230187436289E+03    0.68182E-06   -0.31760E-06 21840   0.788E-03
  28 F= -.23018744E+03 E0= -.23018744E+03  d E =-.542504E-04  mag=     0.0000
