       N       E                     dE             d eps       ncg     rms          rms(c)
DAV:   1     0.242879857067E+04    0.24288E+04   -0.75892E+04 87600   0.142E+03
DAV:   2     0.177299661332E+03   -0.22515E+04   -0.21866E+04 87640   0.490E+02
DAV:   3    -0.273117308283E+03   -0.45042E+03   -0.43766E+03143160   0.191E+02
DAV:   4    -0.301903827669E+03   -0.28787E+02   -0.28618E+02140840   0.604E+01
DAV:   5    -0.302420983514E+03   -0.51716E+00   -0.51594E+00145640   0.119E+01    0.393E+01
DAV:   6    -0.249288670751E+03    0.53132E+02   -0.25463E+02132880   0.557E+01    0.101E+01
DAV:   7    -0.250321554695E+03   -0.10329E+01   -0.18537E+01139160   0.189E+01    0.676E+00
DAV:   8    -0.250123779565E+03    0.19778E+00   -0.12408E+00145940   0.505E+00    0.247E+00
DAV:   9    -0.250124295168E+03   -0.51560E-03   -0.13757E-01135820   0.166E+00    0.792E-01
DAV:  10    -0.250107528424E+03    0.16767E-01   -0.80859E-02131360   0.956E-01    0.198E-01
DAV:  11    -0.250108299045E+03   -0.77062E-03   -0.81970E-03133320   0.408E-01    0.125E-01
DAV:  12    -0.250108571403E+03   -0.27236E-03   -0.17072E-03128480   0.150E-01    0.556E-02
DAV:  13    -0.250108656734E+03   -0.85331E-04   -0.38015E-04136760   0.979E-02    0.356E-02
DAV:  14    -0.250108636838E+03    0.19897E-04   -0.23761E-04130700   0.601E-02    0.119E-02
DAV:  15    -0.250108635361E+03    0.14772E-05   -0.22973E-05149600   0.240E-02    0.615E-03
DAV:  16    -0.250108635312E+03    0.48472E-07   -0.88982E-06122900   0.971E-03    0.302E-03
DAV:  17    -0.250108635311E+03    0.16626E-08   -0.13689E-06115660   0.431E-03    0.161E-03
DAV:  18    -0.250108635368E+03   -0.57626E-07   -0.37870E-07 96860   0.233E-03
   1 F= -.25010864E+03 E0= -.25010864E+03  d E =-.250109E+03
       N       E                     dE             d eps       ncg     rms          rms(c)
DAV:   1    -0.250267030629E+03   -0.15840E+00   -0.19706E+03114980   0.195E+02    0.186E+01
DAV:   2    -0.256959925651E+03   -0.66929E+01   -0.15439E+02117380   0.493E+01    0.129E+01
DAV:   3    -0.253145853344E+03    0.38141E+01   -0.14451E+01143740   0.150E+01    0.586E+00
DAV:   4    -0.252552591943E+03    0.59326E+00   -0.57826E+00131480   0.932E+00    0.317E+00
DAV:   5    -0.252300515259E+03    0.25208E+00   -0.14184E+00134340   0.365E+00    0.796E-01
DAV:   6    -0.252287687877E+03    0.12827E-01   -0.10490E-01128000   0.130E+00    0.256E-01
DAV:   7    -0.252286498627E+03    0.11892E-02   -0.14813E-02140100   0.531E-01    0.160E-01
DAV:   8    -0.252286192890E+03    0.30574E-03   -0.34555E-03132420   0.205E-01    0.616E-02
DAV:   9    -0.252286116961E+03    0.75929E-04   -0.41581E-04145520   0.855E-02    0.298E-02
DAV:  10    -0.252286117218E+03   -0.25732E-06   -0.20056E-04133560   0.465E-02    0.164E-02
DAV:  11    -0.252286112496E+03    0.47223E-05   -0.28224E-05139700   0.218E-02    0.915E-03
DAV:  12    -0.252286112976E+03   -0.47998E-06   -0.14341E-05117920   0.112E-02    0.487E-03
DAV:  13    -0.252286112474E+03    0.50208E-06   -0.35776E-06116720   0.638E-03    0.242E-03
DAV:  14    -0.252286112630E+03   -0.15601E-06   -0.77124E-07113820   0.330E-03    0.110E-03
DAV:  15    -0.252286112733E+03   -0.10275E-06   -0.29028E-07 89300   0.176E-03    0.593E-04
DAV:  16    -0.252286112834E+03   -0.10084E-06   -0.44926E-08 65700   0.114E-03    0.396E-04
DAV:  17    -0.252286112862E+03   -0.28349E-07   -0.18038E-08 65700   0.901E-04
   2 F= -.25228611E+03 E0= -.25228611E+03  d E =-.217748E+01
       N       E                     dE             d eps       ncg     rms          rms(c)
DAV:   1    -0.254421067978E+03   -0.21350E+01   -0.36360E+02110380   0.893E+01    0.923E+00
DAV:   2    -0.254023364967E+03    0.39770E+00   -0.20288E+01115400   0.167E+01    0.408E+00
DAV:   3    -0.253710778957E+03    0.31259E+00   -0.24275E+00139860   0.658E+00    0.155E+00
DAV:   4    -0.253664643506E+03    0.46135E-01   -0.45667E-01138380   0.238E+00    0.714E-01
DAV:   5    -0.253649831494E+03    0.14812E-01   -0.48230E-02137940   0.893E-01    0.246E-01
DAV:   6    -0.253649827908E+03    0.35856E-05   -0.13135E-02144040   0.412E-01    0.126E-01
DAV:   7    -0.253649649894E+03    0.17801E-03   -0.90815E-04136180   0.136E-01    0.699E-02
DAV:   8    -0.253649591446E+03    0.58448E-04   -0.58165E-04127020   0.728E-02    0.144E-02
DAV:   9    -0.253649599114E+03   -0.76684E-05   -0.77255E-05129020   0.360E-02    0.958E-03
DAV:  10    -0.253649600681E+03   -0.15667E-05   -0.16851E-05125920   0.133E-02    0.665E-03
DAV:  11    -0.253649600405E+03    0.27579E-06   -0.18769E-06117320   0.546E-03    0.394E-03
DAV:  12    -0.253649600839E+03   -0.43390E-06   -0.10027E-06114960   0.350E-03    0.775E-04
DAV:  13    -0.253649600763E+03    0.76465E-07   -0.20767E-07 73840   0.194E-03
   3 F= -.25364960E+03 E0= -.25364960E+03  d E =-.354097E+01
       N       E                     dE             d eps       ncg     rms          rms(c)
DAV:   1    -0.254602984945E+03   -0.95338E+00   -0.16006E+02109640   0.643E+01    0.584E+00
DAV:   2    -0.254335888717E+03    0.26710E+00   -0.90762E+00125360   0.131E+01    0.276E+00
DAV:   3    -0.254186596836E+03    0.14929E+00   -0.93915E-01138720   0.350E+00    0.102E+00
DAV:   4    -0.254171062174E+03    0.15535E-01   -0.87170E-02143360   0.152E+00    0.411E-01
DAV:   5    -0.254168978021E+03    0.20842E-02   -0.19208E-02137900   0.509E-01    0.178E-01
DAV:   6    -0.254168705508E+03    0.27251E-03   -0.25829E-03136020   0.254E-01    0.734E-02
DAV:   7    -0.254168760738E+03   -0.55231E-04   -0.12464E-03138680   0.126E-01    0.388E-02
DAV:   8    -0.254168757603E+03    0.31352E-05   -0.14796E-04139920   0.553E-02    0.204E-02
DAV:   9    -0.254168763809E+03   -0.62061E-05   -0.87452E-05138000   0.332E-02    0.901E-03
DAV:  10    -0.254168763483E+03    0.32643E-06   -0.95812E-06136060   0.139E-02    0.471E-03
DAV:  11    -0.254168763318E+03    0.16473E-06   -0.53993E-06123440   0.699E-03    0.186E-03
DAV:  12    -0.254168763025E+03    0.29289E-06   -0.76452E-07110020   0.353E-03    0.123E-03
DAV:  13    -0.254168762918E+03    0.10743E-06   -0.15312E-07 65840   0.203E-03    0.604E-04
DAV:  14    -0.254168762854E+03    0.63335E-07   -0.10296E-07 65860   0.191E-03
   4 F= -.25416876E+03 E0= -.25416876E+03  d E =-.519162E+00
       N       E                     dE             d eps       ncg     rms          rms(c)
DAV:   1    -0.254170208700E+03   -0.14458E-02   -0.22022E-01114320   0.234E+00    0.219E-01
DAV:   2    -0.254169824555E+03    0.38415E-03   -0.12850E-02124380   0.524E-01    0.108E-01
DAV:   3    -0.254169584363E+03    0.24019E-03   -0.12746E-03136020   0.128E-01    0.430E-02
DAV:   4    -0.254169549383E+03    0.34979E-04   -0.15492E-04141580   0.752E-02    0.154E-02
DAV:   5    -0.254169543265E+03    0.61187E-05   -0.34433E-05135760   0.210E-02    0.688E-03
DAV:   6    -0.254169541491E+03    0.17738E-05   -0.44355E-06139340   0.103E-02    0.238E-03
DAV:   7    -0.254169540986E+03    0.50486E-06   -0.11990E-06123920   0.420E-03    0.133E-03
DAV:   8    -0.254169540776E+03    0.20987E-06   -0.10945E-07 65700   0.193E-03    0.718E-04
DAV:   9    -0.254169540633E+03    0.14287E-06   -0.72532E-08 65700   0.179E-03    0.189E-04
DAV:  10    -0.254169540626E+03    0.75706E-08   -0.37273E-08 65700   0.144E-03
   5 F= -.25416954E+03 E0= -.25416954E+03  d E =-.519940E+00
       N       E                     dE             d eps       ncg     rms          rms(c)
DAV:   1    -0.254194621335E+03   -0.25081E-01   -0.13087E+01102340   0.238E+01    0.114E+00
DAV:   2    -0.254264290378E+03   -0.69669E-01   -0.10568E+00104420   0.413E+00    0.685E-01
DAV:   3    -0.254255238738E+03    0.90516E-02   -0.40455E-02143020   0.995E-01    0.318E-01
DAV:   4    -0.254253038625E+03    0.22001E-02   -0.11668E-02133820   0.475E-01    0.976E-02
DAV:   5    -0.254252949062E+03    0.89563E-04   -0.21484E-03118520   0.195E-01    0.611E-02
DAV:   6    -0.254252948007E+03    0.10547E-05   -0.67423E-04130320   0.897E-02    0.274E-02
DAV:   7    -0.254252943175E+03    0.48320E-05   -0.59453E-05135640   0.385E-02    0.157E-02
DAV:   8    -0.254252945518E+03   -0.23425E-05   -0.30908E-05140560   0.203E-02    0.673E-03
DAV:   9    -0.254252945353E+03    0.16470E-06   -0.59364E-06135780   0.960E-03    0.423E-03
DAV:  10    -0.254252945292E+03    0.61034E-07   -0.27792E-06119440   0.576E-03    0.179E-03
DAV:  11    -0.254252945318E+03   -0.25706E-07   -0.95213E-07109240   0.331E-03
   6 F= -.25425295E+03 E0= -.25425295E+03  d E =-.834047E-01
       N       E                     dE             d eps       ncg     rms          rms(c)
DAV:   1    -0.254244036554E+03    0.89087E-02   -0.52199E+00102200   0.149E+01    0.726E-01
DAV:   2    -0.254271727690E+03   -0.27691E-01   -0.42189E-01103880   0.258E+00    0.432E-01
DAV:   3    -0.254268091898E+03    0.36358E-02   -0.16069E-02139820   0.620E-01    0.200E-01
DAV:   4    -0.254267220347E+03    0.87155E-03   -0.46099E-03134660   0.297E-01    0.609E-02
DAV:   5    -0.254267186682E+03    0.33665E-04   -0.84229E-04118180   0.121E-01    0.382E-02
DAV:   6    -0.254267186976E+03   -0.29348E-06   -0.26192E-04129320   0.549E-02    0.171E-02
DAV:   7    -0.254267185344E+03    0.16317E-05   -0.22953E-05136900   0.236E-02    0.979E-03
DAV:   8    -0.254267186530E+03   -0.11861E-05   -0.11711E-05140340   0.123E-02    0.411E-03
DAV:   9    -0.254267186448E+03    0.82113E-07   -0.22195E-06121640   0.589E-03    0.258E-03
DAV:  10    -0.254267186444E+03    0.35689E-08   -0.10467E-06117600   0.374E-03    0.113E-03
DAV:  11    -0.254267186447E+03   -0.31487E-08   -0.35609E-07 93740   0.221E-03
   7 F= -.25426719E+03 E0= -.25426719E+03  d E =-.976458E-01
       N       E                     dE             d eps       ncg     rms          rms(c)
DAV:   1    -0.254190484290E+03    0.76702E-01   -0.17158E+01102320   0.269E+01    0.992E-01
DAV:   2    -0.254318973959E+03   -0.12849E+00   -0.15532E+00 91880   0.447E+00    0.510E-01
DAV:   3    -0.254319595901E+03   -0.62194E-03   -0.68268E-02147420   0.107E+00    0.301E-01
DAV:   4    -0.254317841466E+03    0.17544E-02   -0.10005E-02145360   0.499E-01    0.102E-01
DAV:   5    -0.254317832144E+03    0.93221E-05   -0.23555E-03123580   0.178E-01    0.714E-02
DAV:   6    -0.254317801007E+03    0.31137E-04   -0.87703E-04129140   0.949E-02    0.311E-02
DAV:   7    -0.254317793112E+03    0.78954E-05   -0.11545E-04128940   0.493E-02    0.167E-02
DAV:   8    -0.254317792190E+03    0.92174E-06   -0.40417E-05137480   0.231E-02    0.559E-03
DAV:   9    -0.254317791877E+03    0.31239E-06   -0.60226E-06128720   0.963E-03    0.281E-03
DAV:  10    -0.254317791898E+03   -0.20274E-07   -0.12788E-06115440   0.413E-03    0.123E-03
DAV:  11    -0.254317791938E+03   -0.40036E-07   -0.15377E-07 65840   0.200E-03
   8 F= -.25431779E+03 E0= -.25431779E+03  d E =-.506055E-01
       N       E                     dE             d eps       ncg     rms          rms(c)
DAV:   1    -0.254303828958E+03    0.13963E-01   -0.24013E+00102220   0.101E+01    0.368E-01
DAV:   2    -0.254321961829E+03   -0.18133E-01   -0.21837E-01 93720   0.168E+00    0.193E-01
DAV:   3    -0.254321974698E+03   -0.12869E-04   -0.90330E-03145800   0.390E-01    0.112E-01
DAV:   4    -0.254321733621E+03    0.24108E-03   -0.14283E-03144800   0.190E-01    0.380E-02
DAV:   5    -0.254321728192E+03    0.54290E-05   -0.33071E-04123980   0.680E-02    0.269E-02
DAV:   6    -0.254321722825E+03    0.53668E-05   -0.12649E-04127720   0.360E-02    0.118E-02
DAV:   7    -0.254321721022E+03    0.18027E-05   -0.16468E-05132120   0.190E-02    0.631E-03
DAV:   8    -0.254321720211E+03    0.81174E-06   -0.52004E-06137100   0.858E-03    0.202E-03
DAV:   9    -0.254321720065E+03    0.14590E-06   -0.72403E-07105260   0.347E-03    0.105E-03
DAV:  10    -0.254321720062E+03    0.27194E-08   -0.13202E-07 67120   0.170E-03
   9 F= -.25432172E+03 E0= -.25432172E+03  d E =-.545336E-01
       N       E                     dE             d eps       ncg     rms          rms(c)
DAV:   1    -0.254314535414E+03    0.71847E-02   -0.10995E+01109800   0.222E+01    0.139E+00
DAV:   2    -0.254355681807E+03   -0.41146E-01   -0.10014E+00103340   0.376E+00    0.685E-01
DAV:   3    -0.254348539408E+03    0.71424E-02   -0.64624E-02146000   0.101E+00    0.285E-01
DAV:   4    -0.254347037275E+03    0.15021E-02   -0.54497E-03148120   0.419E-01    0.106E-01
DAV:   5    -0.254346868967E+03    0.16831E-03   -0.86030E-04139260   0.121E-01    0.424E-02
DAV:   6    -0.254346872472E+03   -0.35048E-05   -0.17137E-04141520   0.526E-02    0.170E-02
DAV:   7    -0.254346873568E+03   -0.10962E-05   -0.24358E-05133420   0.213E-02    0.918E-03
DAV:   8    -0.254346875869E+03   -0.23008E-05   -0.97062E-06127260   0.102E-02    0.392E-03
DAV:   9    -0.254346876096E+03   -0.22732E-06   -0.12650E-06133100   0.547E-03    0.147E-03
DAV:  10    -0.254346876141E+03   -0.45306E-07   -0.51135E-07 96800   0.262E-03
  10 F= -.25434688E+03 E0= -.25434688E+03  d E =-.251561E-01
       N       E                     dE             d eps       ncg     rms          rms(c)
DAV:   1    -0.254346581304E+03    0.29479E-03   -0.26939E-01110460   0.346E+00    0.220E-01
DAV:   2    -0.254347553560E+03   -0.97226E-03   -0.24522E-02110620   0.597E-01    0.108E-01
DAV:   3    -0.254347375067E+03    0.17849E-03   -0.15273E-03145900   0.155E-01    0.458E-02
DAV:   4    -0.254347337586E+03    0.37481E-04   -0.13601E-04146520   0.695E-02    0.169E-02
DAV:   5    -0.254347335128E+03    0.24581E-05   -0.22638E-05139260   0.192E-02    0.667E-03
DAV:   6    -0.254347336263E+03   -0.11349E-05   -0.40023E-06136820   0.810E-03    0.264E-03
DAV:   7    -0.254347336539E+03   -0.27608E-06   -0.55929E-07103860   0.333E-03    0.129E-03
DAV:   8    -0.254347336755E+03   -0.21544E-06   -0.16458E-07 67460   0.179E-03    0.516E-04
DAV:   9    -0.254347336793E+03   -0.38506E-07   -0.37471E-08 65700   0.165E-03
  11 F= -.25434734E+03 E0= -.25434734E+03  d E =-.256167E-01
       N       E                     dE             d eps       ncg     rms          rms(c)
DAV:   1    -0.254324233992E+03    0.23103E-01   -0.57289E+00102200   0.159E+01    0.674E-01
DAV:   2    -0.254361114990E+03   -0.36881E-01   -0.50441E-01101000   0.267E+00    0.370E-01
DAV:   3    -0.254359312894E+03    0.18021E-02   -0.18938E-02143680   0.593E-01    0.184E-01
DAV:   4    -0.254358611721E+03    0.70117E-03   -0.30626E-03142980   0.277E-01    0.536E-02
DAV:   5    -0.254358591667E+03    0.20055E-04   -0.53561E-04135660   0.973E-02    0.329E-02
DAV:   6    -0.254358591893E+03   -0.22601E-06   -0.18725E-04134100   0.437E-02    0.168E-02
DAV:   7    -0.254358587789E+03    0.41037E-05   -0.23353E-05143300   0.206E-02    0.892E-03
DAV:   8    -0.254358588014E+03   -0.22503E-06   -0.11889E-05128480   0.112E-02    0.338E-03
DAV:   9    -0.254358587914E+03    0.10022E-06   -0.14799E-06119960   0.547E-03    0.185E-03
DAV:  10    -0.254358587941E+03   -0.27363E-07   -0.65901E-07110560   0.276E-03
  12 F= -.25435859E+03 E0= -.25435859E+03  d E =-.112511E-01
       N       E                     dE             d eps       ncg     rms          rms(c)
DAV:   1    -0.254358092815E+03    0.49510E-03   -0.10964E-01104100   0.219E+00    0.928E-02
DAV:   2    -0.254358799210E+03   -0.70639E-03   -0.96443E-03105200   0.370E-01    0.513E-02
DAV:   3    -0.254358761622E+03    0.37587E-04   -0.34977E-04141820   0.802E-02    0.251E-02
DAV:   4    -0.254358747621E+03    0.14001E-04   -0.58291E-05141940   0.379E-02    0.716E-03
DAV:   5    -0.254358746912E+03    0.70878E-06   -0.10095E-05131620   0.137E-02    0.447E-03
DAV:   6    -0.254358746696E+03    0.21578E-06   -0.33148E-06125640   0.601E-03    0.228E-03
DAV:   7    -0.254358746551E+03    0.14522E-06   -0.36060E-07 97360   0.296E-03    0.127E-03
DAV:   8    -0.254358746483E+03    0.67779E-07   -0.39966E-07 96360   0.214E-03
  13 F= -.25435875E+03 E0= -.25435875E+03  d E =-.114097E-01
       N       E                     dE             d eps       ncg     rms          rms(c)
DAV:   1    -0.254343381771E+03    0.15365E-01   -0.30790E+00102200   0.111E+01    0.286E-01
DAV:   2    -0.254365653687E+03   -0.22272E-01   -0.24699E-01115740   0.192E+00    0.162E-01
DAV:   3    -0.254365643333E+03    0.10355E-04   -0.65475E-03140120   0.373E-01    0.983E-02
DAV:   4    -0.254365490491E+03    0.15284E-03   -0.16466E-03121360   0.171E-01    0.342E-02
DAV:   5    -0.254365502944E+03   -0.12453E-04   -0.39773E-04121420   0.801E-02    0.271E-02
DAV:   6    -0.254365503852E+03   -0.90818E-06   -0.10604E-04127380   0.326E-02    0.122E-02
DAV:   7    -0.254365505087E+03   -0.12349E-05   -0.12426E-05136160   0.169E-02    0.725E-03
DAV:   8    -0.254365505783E+03   -0.69624E-06   -0.25321E-06124440   0.647E-03    0.224E-03
DAV:   9    -0.254365505836E+03   -0.52678E-07   -0.43811E-07 90680   0.266E-03
  14 F= -.25436551E+03 E0= -.25436551E+03  d E =-.675935E-02
       N       E                     dE             d eps       ncg     rms          rms(c)
DAV:   1    -0.254362196345E+03    0.33094E-02   -0.54924E-01102180   0.472E+00    0.121E-01
DAV:   2    -0.254366190552E+03   -0.39942E-02   -0.44283E-02117860   0.815E-01    0.683E-02
DAV:   3    -0.254366189154E+03    0.13982E-05   -0.11660E-03140780   0.157E-01    0.415E-02
DAV:   4    -0.254366162254E+03    0.26900E-04   -0.28996E-04123540   0.724E-02    0.144E-02
DAV:   5    -0.254366164428E+03   -0.21732E-05   -0.69557E-05120060   0.333E-02    0.113E-02
DAV:   6    -0.254366164784E+03   -0.35630E-06   -0.18680E-05127720   0.136E-02    0.515E-03
DAV:   7    -0.254366165060E+03   -0.27566E-06   -0.21554E-06132220   0.702E-03    0.305E-03
DAV:   8    -0.254366165268E+03   -0.20875E-06   -0.43089E-07 95040   0.275E-03    0.972E-04
DAV:   9    -0.254366165292E+03   -0.23856E-07   -0.75099E-08 65700   0.149E-03
  15 F= -.25436617E+03 E0= -.25436617E+03  d E =-.741881E-02
       N       E                     dE             d eps       ncg     rms          rms(c)
DAV:   1    -0.254360281303E+03    0.58840E-02   -0.18976E+00102220   0.836E+00    0.371E-01
DAV:   2    -0.254369540701E+03   -0.92594E-02   -0.13552E-01 93220   0.140E+00    0.196E-01
DAV:   3    -0.254369128979E+03    0.41172E-03   -0.69301E-03145960   0.350E-01    0.976E-02
DAV:   4    -0.254368944182E+03    0.18480E-03   -0.11375E-03146280   0.157E-01    0.355E-02
DAV:   5    -0.254368933667E+03    0.10515E-04   -0.20631E-04131960   0.583E-02    0.214E-02
DAV:   6    -0.254368935104E+03   -0.14366E-05   -0.90971E-05128020   0.300E-02    0.107E-02
DAV:   7    -0.254368934624E+03    0.47985E-06   -0.11472E-05134680   0.146E-02    0.626E-03
DAV:   8    -0.254368935146E+03   -0.52219E-06   -0.57668E-06113360   0.797E-03    0.189E-03
DAV:   9    -0.254368935275E+03   -0.12900E-06   -0.97910E-07106500   0.434E-03    0.148E-03
DAV:  10    -0.254368935268E+03    0.76125E-08   -0.15689E-07 65920   0.196E-03
  16 F= -.25436894E+03 E0= -.25436894E+03  d E =-.276998E-02
       N       E                     dE             d eps       ncg     rms          rms(c)
DAV:   1    -0.254368879115E+03    0.56161E-04   -0.22498E-02105620   0.909E-01    0.406E-02
DAV:   2    -0.254368988948E+03   -0.10983E-03   -0.16037E-03 96400   0.152E-01    0.212E-02
DAV:   3    -0.254368983135E+03    0.58138E-05   -0.83192E-05146060   0.383E-02    0.107E-02
DAV:   4    -0.254368980381E+03    0.27538E-05   -0.12876E-05148220   0.170E-02    0.378E-03
DAV:   5    -0.254368979980E+03    0.40102E-06   -0.23642E-06123000   0.619E-03    0.226E-03
DAV:   6    -0.254368979832E+03    0.14760E-06   -0.97085E-07111880   0.325E-03    0.112E-03
DAV:   7    -0.254368979754E+03    0.77947E-07   -0.96839E-08 65800   0.179E-03
  17 F= -.25436898E+03 E0= -.25436898E+03  d E =-.281446E-02
       N       E                     dE             d eps       ncg     rms          rms(c)
DAV:   1    -0.254367779925E+03    0.11999E-02   -0.36529E-01109520   0.370E+00    0.171E-01
DAV:   2    -0.254369758687E+03   -0.19788E-02   -0.28485E-02103640   0.632E-01    0.856E-02
DAV:   3    -0.254369690475E+03    0.68211E-04   -0.15093E-03145860   0.161E-01    0.435E-02
DAV:   4    -0.254369654213E+03    0.36262E-04   -0.20769E-04145340   0.736E-02    0.155E-02
DAV:   5    -0.254369651126E+03    0.30875E-05   -0.37670E-05131580   0.239E-02    0.895E-03
DAV:   6    -0.254369649815E+03    0.13105E-05   -0.12043E-05137280   0.117E-02    0.410E-03
DAV:   7    -0.254369649231E+03    0.58412E-06   -0.13735E-06124140   0.518E-03    0.222E-03
DAV:   8    -0.254369648817E+03    0.41395E-06   -0.81171E-07118640   0.327E-03    0.779E-04
DAV:   9    -0.254369648791E+03    0.25759E-07   -0.11376E-07 65700   0.169E-03
  18 F= -.25436965E+03 E0= -.25436965E+03  d E =-.669037E-03
       N       E                     dE             d eps       ncg     rms          rms(c)
DAV:   1    -0.254369626188E+03    0.22629E-04   -0.81580E-03110840   0.551E-01    0.256E-02
DAV:   2    -0.254369669986E+03   -0.43797E-04   -0.63486E-04103540   0.939E-02    0.128E-02
DAV:   3    -0.254369669532E+03    0.45361E-06   -0.33816E-05145080   0.240E-02    0.646E-03
DAV:   4    -0.254369669189E+03    0.34331E-06   -0.44836E-06144840   0.108E-02    0.231E-03
DAV:   5    -0.254369669467E+03   -0.27784E-06   -0.79513E-07102860   0.356E-03    0.131E-03
DAV:   6    -0.254369669637E+03   -0.17066E-06   -0.19464E-07 69780   0.205E-03    0.504E-04
DAV:   7    -0.254369669718E+03   -0.80225E-07   -0.62444E-08 65700   0.191E-03
  19 F= -.25436967E+03 E0= -.25436967E+03  d E =-.689963E-03
       N       E                     dE             d eps       ncg     rms          rms(c)
DAV:   1    -0.254369419087E+03    0.25055E-03   -0.96558E-02109760   0.192E+00    0.956E-02
DAV:   2    -0.254369906214E+03   -0.48713E-03   -0.74822E-03101740   0.323E-01    0.479E-02
DAV:   3    -0.254369885024E+03    0.21190E-04   -0.43931E-04145660   0.855E-02    0.235E-02
DAV:   4    -0.254369876275E+03    0.87496E-05   -0.55945E-05150220   0.374E-02    0.815E-03
DAV:   5    -0.254369876693E+03   -0.41862E-06   -0.82413E-06127520   0.117E-02    0.427E-03
DAV:   6    -0.254369877479E+03   -0.78529E-06   -0.34707E-06120800   0.614E-03    0.229E-03
DAV:   7    -0.254369877517E+03   -0.37991E-07   -0.43686E-07 98840   0.314E-03
  20 F= -.25436988E+03 E0= -.25436988E+03  d E =-.207799E-03
       N       E                     dE             d eps       ncg     rms          rms(c)
DAV:   1    -0.254369876160E+03    0.13186E-05   -0.10616E-03112160   0.201E-01    0.100E-02
DAV:   2    -0.254369881716E+03   -0.55562E-05   -0.82554E-05104360   0.339E-02    0.513E-03
DAV:   3    -0.254369881065E+03    0.65113E-06   -0.47224E-06145940   0.903E-03    0.252E-03
DAV:   4    -0.254369880811E+03    0.25437E-06   -0.72899E-07124300   0.418E-03    0.898E-04
DAV:   5    -0.254369880712E+03    0.99120E-07   -0.89702E-08 65700   0.169E-03
  21 F= -.25436988E+03 E0= -.25436988E+03  d E =-.210994E-03
       N       E                     dE             d eps       ncg     rms          rms(c)
DAV:   1    -0.254369820646E+03    0.60164E-04   -0.39657E-02102360   0.107E+00    0.384E-02
DAV:   2    -0.254369994238E+03   -0.17359E-03   -0.21523E-03107100   0.192E-01    0.226E-02
DAV:   3    -0.254369987198E+03    0.70404E-05   -0.79836E-05144700   0.401E-02    0.125E-02
DAV:   4    -0.254369983362E+03    0.38359E-05   -0.21589E-05131440   0.195E-02    0.419E-03
DAV:   5    -0.254369983201E+03    0.16035E-06   -0.46777E-06120760   0.878E-03    0.322E-03
DAV:   6    -0.254369983077E+03    0.12454E-06   -0.17129E-06114860   0.412E-03    0.149E-03
DAV:   7    -0.254369983005E+03    0.72359E-07   -0.14969E-07 73000   0.230E-03
  22 F= -.25436998E+03 E0= -.25436998E+03  d E =-.102293E-03
       N       E                     dE             d eps       ncg     rms          rms(c)
DAV:   1    -0.254369973281E+03    0.97960E-05   -0.38733E-03103220   0.336E-01    0.121E-02
DAV:   2    -0.254369990188E+03   -0.16908E-04   -0.21016E-04113240   0.601E-02    0.704E-03
DAV:   3    -0.254369989426E+03    0.76292E-06   -0.79152E-06144600   0.126E-02    0.389E-03
DAV:   4    -0.254369988974E+03    0.45158E-06   -0.19477E-06125960   0.595E-03    0.125E-03
DAV:   5    -0.254369988927E+03    0.47088E-07   -0.39822E-07 81160   0.277E-03
  23 F= -.25436999E+03 E0= -.25436999E+03  d E =-.108215E-03
       N       E                     dE             d eps       ncg     rms          rms(c)
DAV:   1    -0.254369893792E+03    0.95182E-04   -0.26338E-02102280   0.972E-01    0.280E-02
DAV:   2    -0.254370041952E+03   -0.14816E-03   -0.17248E-03104200   0.170E-01    0.155E-02
DAV:   3    -0.254370042705E+03   -0.75325E-06   -0.62910E-05143980   0.346E-02    0.977E-03
DAV:   4    -0.254370041155E+03    0.15503E-05   -0.13398E-05137520   0.157E-02    0.392E-03
DAV:   5    -0.254370040992E+03    0.16280E-06   -0.28622E-06121500   0.701E-03    0.302E-03
DAV:   6    -0.254370040872E+03    0.12009E-06   -0.15449E-06112580   0.384E-03    0.117E-03
DAV:   7    -0.254370040849E+03    0.22748E-07   -0.18860E-07 77080   0.215E-03
  24 F= -.25437004E+03 E0= -.25437004E+03  d E =-.519221E-04
       N       E                     dE             d eps       ncg     rms          rms(c)
DAV:   1    -0.254370039775E+03    0.10964E-05   -0.28258E-04106820   0.101E-01    0.290E-03
DAV:   2    -0.254370041369E+03   -0.15940E-05   -0.18631E-05115880   0.178E-02    0.162E-03
DAV:   3    -0.254370041351E+03    0.17941E-07   -0.64217E-07114420   0.359E-03
  25 F= -.25437004E+03 E0= -.25437004E+03  d E =-.524246E-04
       N       E                     dE             d eps       ncg     rms          rms(c)
DAV:   1    -0.254369993735E+03    0.47634E-04   -0.12622E-02108360   0.664E-01    0.253E-02
DAV:   2    -0.254370060054E+03   -0.66318E-04   -0.86626E-04 96880   0.110E-01    0.125E-02
DAV:   3    -0.254370060816E+03   -0.76280E-06   -0.46862E-05147580   0.273E-02    0.722E-03
DAV:   4    -0.254370060132E+03    0.68452E-06   -0.62608E-06149840   0.122E-02    0.264E-03
DAV:   5    -0.254370060403E+03   -0.27142E-06   -0.11901E-06107740   0.426E-03    0.160E-03
DAV:   6    -0.254370060590E+03   -0.18700E-06   -0.48777E-07100940   0.269E-03    0.823E-04
DAV:   7    -0.254370060645E+03   -0.54368E-07   -0.63876E-08 65700   0.150E-03
  26 F= -.25437006E+03 E0= -.25437006E+03  d E =-.192931E-04
       N       E                     dE             d eps       ncg     rms          rms(c)
DAV:   1    -0.254370060358E+03    0.23230E-06   -0.14756E-04112180   0.718E-02    0.272E-03
DAV:   2    -0.254370061183E+03   -0.82465E-06   -0.10184E-05102000   0.119E-02    0.138E-03
DAV:   3    -0.254370061092E+03    0.90411E-07   -0.48818E-07111100   0.296E-03
  27 F= -.25437006E+03 E0= -.25437006E+03  d E =-.197407E-04
       N       E                     dE             d eps       ncg     rms          rms(c)
DAV:   1    -0.254370047929E+03    0.13254E-04   -0.44970E-03109700   0.416E-01    0.196E-02
DAV:   2    -0.254370070947E+03   -0.23018E-04   -0.33790E-04101500   0.691E-02    0.967E-03
DAV:   3    -0.254370069710E+03    0.12372E-05   -0.19964E-05146560   0.178E-02    0.486E-03
DAV:   4    -0.254370069063E+03    0.64711E-06   -0.21665E-06151160   0.751E-03    0.178E-03
DAV:   5    -0.254370068813E+03    0.24958E-06   -0.27675E-07 74580   0.237E-03    0.881E-04
DAV:   6    -0.254370068663E+03    0.15038E-06   -0.12011E-07 66720   0.195E-03    0.321E-04
DAV:   7    -0.254370068631E+03    0.31752E-07   -0.56045E-08 65700   0.166E-03
  28 F= -.25437007E+03 E0= -.25437007E+03  d E =-.753914E-05
       N       E                     dE             d eps       ncg     rms          rms(c)
DAV:   1    -0.254370068536E+03    0.12748E-06   -0.85649E-06115440   0.182E-02    0.885E-04
DAV:   2    -0.254370068563E+03   -0.27008E-07   -0.65618E-07101300   0.306E-03
  29 F= -.25437007E+03 E0= -.25437007E+03  d E =-.747042E-05
       N       E                     dE             d eps       ncg     rms          rms(c)
DAV:   1    -0.254370058847E+03    0.96881E-05   -0.27453E-03105500   0.305E-01    0.116E-02
DAV:   2    -0.254370072752E+03   -0.13904E-04   -0.18199E-04 92120   0.504E-02    0.547E-03
DAV:   3    -0.254370073289E+03   -0.53717E-06   -0.10207E-05149240   0.125E-02    0.318E-03
DAV:   4    -0.254370073240E+03    0.48509E-07   -0.10693E-06131520   0.507E-03    0.121E-03
DAV:   5    -0.254370073375E+03   -0.13436E-06   -0.18757E-07 73000   0.188E-03    0.660E-04
DAV:   6    -0.254370073472E+03   -0.96887E-07   -0.58822E-08 65700   0.153E-03
  30 F= -.25437007E+03 E0= -.25437007E+03  d E =-.490912E-05
       N       E                     dE             d eps       ncg     rms          rms(c)
DAV:   1    -0.254370072303E+03    0.10719E-05   -0.26481E-04107620   0.948E-02    0.360E-03
DAV:   2    -0.254370073626E+03   -0.13234E-05   -0.17596E-05 97840   0.156E-02    0.172E-03
DAV:   3    -0.254370073756E+03   -0.12934E-06   -0.96690E-07139380   0.388E-03    0.975E-04
DAV:   4    -0.254370073787E+03   -0.30876E-07   -0.68492E-08 65700   0.173E-03
  31 F= -.25437007E+03 E0= -.25437007E+03  d E =-.522397E-05
       N       E                     dE             d eps       ncg     rms          rms(c)
DAV:   1    -0.254370061943E+03    0.11813E-04   -0.27274E-03102520   0.315E-01    0.109E-02
DAV:   2    -0.254370077806E+03   -0.15864E-04   -0.19148E-04102980   0.533E-02    0.582E-03
DAV:   3    -0.254370077502E+03    0.30400E-06   -0.74276E-06142800   0.116E-02    0.330E-03
DAV:   4    -0.254370077185E+03    0.31709E-06   -0.13532E-06141100   0.519E-03    0.118E-03
DAV:   5    -0.254370077097E+03    0.88612E-07   -0.21150E-07 73000   0.214E-03
  32 F= -.25437008E+03 E0= -.25437008E+03  d E =-.331005E-05
       N       E                     dE             d eps       ncg     rms          rms(c)
DAV:   1    -0.254370076722E+03    0.46285E-06   -0.56518E-05106760   0.454E-02    0.157E-03
DAV:   2    -0.254370077003E+03   -0.28028E-06   -0.39331E-06 99820   0.751E-03    0.825E-04
DAV:   3    -0.254370077016E+03   -0.13104E-07   -0.15354E-07 82060   0.179E-03
  33 F= -.25437008E+03 E0= -.25437008E+03  d E =-.322920E-05
       N       E                     dE             d eps       ncg     rms          rms(c)
DAV:   1    -0.254370074749E+03    0.22535E-05   -0.51111E-04102700   0.142E-01    0.373E-03
DAV:   2    -0.254370078141E+03   -0.33918E-05   -0.37742E-05121720   0.245E-02    0.200E-03
DAV:   3    -0.254370078171E+03   -0.29979E-07   -0.10392E-06121580   0.484E-03    0.123E-03
DAV:   4    -0.254370078160E+03    0.10736E-07   -0.19462E-07 70800   0.216E-03
  34 F= -.25437008E+03 E0= -.25437008E+03  d E =-.114444E-05
       N       E                     dE             d eps       ncg     rms          rms(c)
DAV:   1    -0.254370078044E+03    0.12739E-06   -0.21670E-05109040   0.294E-02    0.919E-04
DAV:   2    -0.254370078193E+03   -0.14965E-06   -0.16476E-06110120   0.484E-03    0.426E-04
DAV:   3    -0.254370078202E+03   -0.86366E-08   -0.48321E-08 65700   0.110E-03
  35 F= -.25437008E+03 E0= -.25437008E+03  d E =-.118606E-05
       N       E                     dE             d eps       ncg     rms          rms(c)
DAV:   1    -0.254370077176E+03    0.10170E-05   -0.26854E-04102760   0.100E-01    0.336E-03
DAV:   2    -0.254370078822E+03   -0.16458E-05   -0.19604E-05104060   0.170E-02    0.182E-03
DAV:   3    -0.254370078771E+03    0.50599E-07   -0.73346E-07119100   0.370E-03
  36 F= -.25437008E+03 E0= -.25437008E+03  d E =-.569522E-06
