       N       E                     dE             d eps       ncg     rms          rms(c)
DAV:   1     0.741245511969E+03    0.74125E+03   -0.62198E+04 11544   0.142E+03
DAV:   2    -0.209279340042E+03   -0.95052E+03   -0.92544E+03 14204   0.304E+02
DAV:   3    -0.280623834221E+03   -0.71344E+02   -0.70708E+02 13088   0.951E+01
DAV:   4    -0.283061439909E+03   -0.24376E+01   -0.24284E+01 16576   0.234E+01
DAV:   5    -0.283094973313E+03   -0.33533E-01   -0.33479E-01 13752   0.226E+00    0.387E+01
DAV:   6    -0.243019167999E+03    0.40076E+02   -0.27598E+02 15664   0.608E+01    0.513E+01
DAV:   7    -0.240467965278E+03    0.25512E+01   -0.22899E+02 16916   0.140E+02    0.179E+01
DAV:   8    -0.236856713103E+03    0.36113E+01   -0.26090E+01 14008   0.160E+01    0.142E+01
DAV:   9    -0.231836234173E+03    0.50205E+01   -0.81440E+00 16704   0.179E+01    0.405E+00
DAV:  10    -0.232367638471E+03   -0.53140E+00   -0.10800E+01 16680   0.758E+00    0.169E+01
DAV:  11    -0.231641443140E+03    0.72620E+00   -0.54944E+00 15460   0.395E+00    0.261E+00
DAV:  12    -0.231613065687E+03    0.28377E-01   -0.39984E-01 14432   0.166E+00    0.120E+00
DAV:  13    -0.231612772864E+03    0.29282E-03   -0.18613E-01 15380   0.197E+00    0.195E+00
DAV:  14    -0.231591943323E+03    0.20830E-01   -0.28189E-02 15200   0.574E-01    0.150E+00
DAV:  15    -0.231590013658E+03    0.19297E-02   -0.82785E-03 16804   0.403E-01    0.157E+00
DAV:  16    -0.231578366255E+03    0.11647E-01   -0.29850E-02 16872   0.431E-01    0.836E-01
DAV:  17    -0.231578463207E+03   -0.96951E-04   -0.15380E-03 13176   0.115E-01    0.833E-01
DAV:  18    -0.231576731222E+03    0.17320E-02   -0.26921E-03 15568   0.912E-02    0.695E-01
DAV:  19    -0.231574239511E+03    0.24917E-02   -0.18494E-02 16984   0.279E-01    0.108E-01
DAV:  20    -0.231575695576E+03   -0.14561E-02   -0.89151E-03 16856   0.205E-01    0.563E-01
DAV:  21    -0.231574533057E+03    0.11625E-02   -0.37392E-03 16128   0.116E-01    0.236E-01
DAV:  22    -0.231574384161E+03    0.14890E-03   -0.31201E-03 16312   0.122E-01    0.898E-02
DAV:  23    -0.231574394112E+03   -0.99501E-05   -0.75039E-05 13488   0.315E-02    0.753E-02
DAV:  24    -0.231574373833E+03    0.20278E-04   -0.13475E-04 16008   0.219E-02    0.289E-02
DAV:  25    -0.231574379243E+03   -0.54094E-05   -0.10071E-04 14400   0.191E-02    0.374E-02
DAV:  26    -0.231574373472E+03    0.57710E-05   -0.60578E-05 12816   0.140E-02    0.522E-03
DAV:  27    -0.231574373991E+03   -0.51867E-06   -0.39491E-06  8120   0.627E-03
   1 F= -.23157437E+03 E0= -.23157437E+03  d E =-.231574E+03  mag=     0.0001
       N       E                     dE             d eps       ncg     rms          rms(c)
DAV:   1    -0.232810783413E+03   -0.12364E+01   -0.39679E+02 11968   0.729E+01    0.381E+00
DAV:   2    -0.233588941980E+03   -0.77816E+00   -0.11474E+01 15656   0.178E+01    0.525E+00
DAV:   3    -0.233227869867E+03    0.36107E+00   -0.76741E-01 16704   0.665E+00    0.241E+00
DAV:   4    -0.233036122579E+03    0.19175E+00   -0.62449E-01 13656   0.308E+00    0.111E+00
DAV:   5    -0.233022661438E+03    0.13461E-01   -0.20749E-01 15968   0.224E+00    0.518E-01
DAV:   6    -0.233022110900E+03    0.55054E-03   -0.50448E-02 15744   0.938E-01    0.255E-01
DAV:   7    -0.233021923686E+03    0.18721E-03   -0.57344E-03 14144   0.350E-01    0.158E-01
DAV:   8    -0.233021808062E+03    0.11562E-03   -0.20924E-03 13872   0.213E-01    0.696E-02
DAV:   9    -0.233021759959E+03    0.48103E-04   -0.77027E-04 13520   0.118E-01    0.287E-02
DAV:  10    -0.233021775922E+03   -0.15963E-04   -0.21404E-04 14704   0.631E-02    0.162E-02
DAV:  11    -0.233021780505E+03   -0.45832E-05   -0.37576E-05 12904   0.234E-02    0.126E-02
DAV:  12    -0.233021777497E+03    0.30082E-05   -0.10339E-05 13024   0.155E-02    0.595E-03
DAV:  13    -0.233021777234E+03    0.26267E-06   -0.63391E-06 13172   0.106E-02
   2 F= -.23302178E+03 E0= -.23302178E+03  d E =-.144740E+01  mag=     0.0000
       N       E                     dE             d eps       ncg     rms          rms(c)
DAV:   1    -0.233290128746E+03   -0.26835E+00   -0.29198E+01 11936   0.200E+01    0.121E+00
DAV:   2    -0.233348474557E+03   -0.58346E-01   -0.88261E-01 16288   0.587E+00    0.229E+00
DAV:   3    -0.233296426184E+03    0.52048E-01   -0.16415E-01 16840   0.320E+00    0.667E-01
DAV:   4    -0.233278327527E+03    0.18099E-01   -0.40226E-02 13224   0.892E-01    0.296E-01
DAV:   5    -0.233276425310E+03    0.19022E-02   -0.19944E-02 13904   0.623E-01    0.108E-01
DAV:   6    -0.233276571724E+03   -0.14641E-03   -0.44919E-03 13896   0.260E-01    0.814E-02
DAV:   7    -0.233276498269E+03    0.73455E-04   -0.43817E-04 13168   0.839E-02    0.419E-02
DAV:   8    -0.233276476828E+03    0.21440E-04   -0.20935E-04 13376   0.554E-02    0.175E-02
DAV:   9    -0.233276472385E+03    0.44429E-05   -0.40071E-05 15328   0.354E-02    0.827E-03
DAV:  10    -0.233276475375E+03   -0.29893E-05   -0.34145E-05 12600   0.195E-02    0.559E-03
DAV:  11    -0.233276474956E+03    0.41844E-06   -0.25621E-06  8240   0.696E-03
   3 F= -.23327647E+03 E0= -.23327647E+03  d E =-.170210E+01  mag=    -0.0000
       N       E                     dE             d eps       ncg     rms          rms(c)
DAV:   1    -0.233426150600E+03   -0.14968E+00   -0.43952E+01 11968   0.312E+01    0.236E+00
DAV:   2    -0.233589585667E+03   -0.16344E+00   -0.20184E+00 16240   0.959E+00    0.337E+00
DAV:   3    -0.233427064953E+03    0.16252E+00   -0.27379E-01 16368   0.482E+00    0.781E-01
DAV:   4    -0.233409128466E+03    0.17936E-01   -0.89384E-02 13536   0.109E+00    0.278E-01
DAV:   5    -0.233408451002E+03    0.67746E-03   -0.15236E-02 13792   0.478E-01    0.140E-01
DAV:   6    -0.233408222188E+03    0.22881E-03   -0.26072E-03 15904   0.221E-01    0.632E-02
DAV:   7    -0.233408185503E+03    0.36686E-04   -0.31664E-04 14912   0.846E-02    0.350E-02
DAV:   8    -0.233408185813E+03   -0.31028E-06   -0.21308E-04 13632   0.506E-02    0.212E-02
DAV:   9    -0.233408176396E+03    0.94168E-05   -0.30646E-05 14624   0.265E-02    0.113E-02
DAV:  10    -0.233408176226E+03    0.17026E-06   -0.38844E-05 13088   0.229E-02    0.556E-03
DAV:  11    -0.233408175892E+03    0.33382E-06   -0.51720E-06 12824   0.991E-03
   4 F= -.23340818E+03 E0= -.23340818E+03  d E =-.131701E+00  mag=     0.0000
       N       E                     dE             d eps       ncg     rms          rms(c)
DAV:   1    -0.233412753447E+03   -0.45772E-02   -0.98883E-01 12024   0.468E+00    0.355E-01
DAV:   2    -0.233416433453E+03   -0.36800E-02   -0.46419E-02 16192   0.142E+00    0.546E-01
DAV:   3    -0.233412819025E+03    0.36144E-02   -0.81455E-03 16316   0.810E-01    0.119E-01
DAV:   4    -0.233412418176E+03    0.40085E-03   -0.15722E-03 14200   0.167E-01    0.445E-02
DAV:   5    -0.233412393531E+03    0.24645E-04   -0.29919E-04 13600   0.686E-02    0.188E-02
DAV:   6    -0.233412390501E+03    0.30305E-05   -0.47059E-05 15320   0.289E-02    0.893E-03
DAV:   7    -0.233412389676E+03    0.82505E-06   -0.63220E-06 13040   0.110E-02
   5 F= -.23341239E+03 E0= -.23341239E+03  d E =-.135915E+00  mag=    -0.0000
       N       E                     dE             d eps       ncg     rms          rms(c)
DAV:   1    -0.233471499040E+03   -0.59109E-01   -0.98338E+00 11424   0.118E+01    0.121E+00
DAV:   2    -0.233467946122E+03    0.35529E-02   -0.28879E-01 15984   0.272E+00    0.984E-01
DAV:   3    -0.233456110899E+03    0.11835E-01   -0.38518E-02 16592   0.161E+00    0.705E-01
DAV:   4    -0.233445831076E+03    0.10280E-01   -0.31743E-02 16768   0.110E+00    0.226E-01
DAV:   5    -0.233445043881E+03    0.78719E-03   -0.72827E-03 13856   0.412E-01    0.116E-01
DAV:   6    -0.233444868443E+03    0.17544E-03   -0.20992E-03 13200   0.169E-01    0.457E-02
DAV:   7    -0.233444876512E+03   -0.80687E-05   -0.27680E-04 13100   0.731E-02    0.260E-02
DAV:   8    -0.233444871553E+03    0.49589E-05   -0.48626E-05 13632   0.299E-02    0.930E-03
DAV:   9    -0.233444873143E+03   -0.15904E-05   -0.12745E-05 13604   0.134E-02    0.497E-03
DAV:  10    -0.233444873159E+03   -0.15659E-07   -0.29306E-06 10368   0.737E-03
   6 F= -.23344487E+03 E0= -.23344487E+03  d E =-.324835E-01  mag=     0.0000
       N       E                     dE             d eps       ncg     rms          rms(c)
DAV:   1    -0.233447916909E+03   -0.30438E-02   -0.37718E-01 11432   0.231E+00    0.237E-01
DAV:   2    -0.233447811487E+03    0.10542E-03   -0.11393E-02 15904   0.532E-01    0.192E-01
DAV:   3    -0.233447372778E+03    0.43871E-03   -0.15175E-03 16640   0.321E-01    0.139E-01
DAV:   4    -0.233446976129E+03    0.39665E-03   -0.11764E-03 16768   0.214E-01    0.449E-02
DAV:   5    -0.233446943516E+03    0.32613E-04   -0.27652E-04 13792   0.794E-02    0.222E-02
DAV:   6    -0.233446937367E+03    0.61488E-05   -0.79606E-05 13344   0.332E-02    0.881E-03
DAV:   7    -0.233446937829E+03   -0.46198E-06   -0.10261E-05 12776   0.142E-02    0.508E-03
DAV:   8    -0.233446937710E+03    0.11960E-06   -0.16960E-06  7712   0.580E-03
   7 F= -.23344694E+03 E0= -.23344694E+03  d E =-.345480E-01  mag=     0.0000
       N       E                     dE             d eps       ncg     rms          rms(c)
DAV:   1    -0.233445639828E+03    0.12980E-02   -0.72704E+00 11968   0.141E+01    0.630E-01
DAV:   2    -0.233478915586E+03   -0.33276E-01   -0.37837E-01 13200   0.271E+00    0.810E-01
DAV:   3    -0.233471695498E+03    0.72201E-02   -0.25170E-02 16512   0.134E+00    0.281E-01
DAV:   4    -0.233470128253E+03    0.15672E-02   -0.46715E-03 17304   0.395E-01    0.108E-01
DAV:   5    -0.233470049081E+03    0.79172E-04   -0.18492E-03 13072   0.155E-01    0.472E-02
DAV:   6    -0.233470056580E+03   -0.74998E-05   -0.21834E-04 15184   0.637E-02    0.228E-02
DAV:   7    -0.233470061653E+03   -0.50730E-05   -0.43954E-05 13600   0.269E-02    0.118E-02
DAV:   8    -0.233470062280E+03   -0.62668E-06   -0.62977E-06 13168   0.128E-02
   8 F= -.23347006E+03 E0= -.23347006E+03  d E =-.231246E-01  mag=     0.0000
       N       E                     dE             d eps       ncg     rms          rms(c)
DAV:   1    -0.233468105703E+03    0.19560E-02   -0.11569E+00 11968   0.561E+00    0.247E-01
DAV:   2    -0.233473444662E+03   -0.53390E-02   -0.60655E-02 13080   0.107E+00    0.315E-01
DAV:   3    -0.233472348463E+03    0.10962E-02   -0.38925E-03 16448   0.526E-01    0.112E-01
DAV:   4    -0.233472099572E+03    0.24889E-03   -0.74328E-04 17144   0.158E-01    0.433E-02
DAV:   5    -0.233472086895E+03    0.12678E-04   -0.29085E-04 13072   0.615E-02    0.190E-02
DAV:   6    -0.233472088023E+03   -0.11288E-05   -0.33737E-05 15360   0.253E-02    0.911E-03
DAV:   7    -0.233472088765E+03   -0.74130E-06   -0.72119E-06 13072   0.109E-02
   9 F= -.23347209E+03 E0= -.23347209E+03  d E =-.251511E-01  mag=     0.0000
       N       E                     dE             d eps       ncg     rms          rms(c)
DAV:   1    -0.233476150968E+03   -0.40629E-02   -0.17313E+00 11968   0.494E+00    0.201E-01
DAV:   2    -0.233477750217E+03   -0.15992E-02   -0.32528E-02 13136   0.671E-01    0.142E-01
DAV:   3    -0.233477141848E+03    0.60837E-03   -0.20452E-03 16448   0.239E-01    0.103E-01
DAV:   4    -0.233477029314E+03    0.11253E-03   -0.13066E-03 16320   0.254E-01    0.935E-02
DAV:   5    -0.233476878260E+03    0.15105E-03   -0.46066E-04 16768   0.149E-01    0.234E-02
DAV:   6    -0.233476868819E+03    0.94414E-05   -0.77296E-05 14704   0.471E-02    0.144E-02
DAV:   7    -0.233476868269E+03    0.54958E-06   -0.43300E-05 13360   0.252E-02    0.100E-02
DAV:   8    -0.233476867039E+03    0.12303E-05   -0.13083E-05 13520   0.132E-02    0.418E-03
DAV:   9    -0.233476866663E+03    0.37593E-06   -0.24729E-06  9024   0.663E-03
  10 F= -.23347687E+03 E0= -.23347687E+03  d E =-.477790E-02  mag=     0.0000
       N       E                     dE             d eps       ncg     rms          rms(c)
DAV:   1    -0.233476905312E+03   -0.38273E-04   -0.12121E-02 12140   0.413E-01    0.167E-02
DAV:   2    -0.233476915046E+03   -0.97335E-05   -0.22010E-04 13168   0.556E-02    0.119E-02
DAV:   3    -0.233476910304E+03    0.47417E-05   -0.14414E-05 16060   0.200E-02    0.835E-03
DAV:   4    -0.233476909428E+03    0.87629E-06   -0.96631E-06 15664   0.217E-02
  11 F= -.23347691E+03 E0= -.23347691E+03  d E =-.482066E-02  mag=     0.0000
       N       E                     dE             d eps       ncg     rms          rms(c)
DAV:   1    -0.233478900198E+03   -0.19899E-02   -0.53476E-01 11968   0.356E+00    0.203E-01
DAV:   2    -0.233480711479E+03   -0.18113E-02   -0.21780E-02 15720   0.787E-01    0.271E-01
DAV:   3    -0.233479829219E+03    0.88226E-03   -0.26758E-03 16640   0.438E-01    0.799E-02
DAV:   4    -0.233479718918E+03    0.11030E-03   -0.43880E-04 15776   0.104E-01    0.293E-02
DAV:   5    -0.233479710213E+03    0.87049E-05   -0.10736E-04 13616   0.387E-02    0.135E-02
DAV:   6    -0.233479709268E+03    0.94430E-06   -0.16376E-05 13936   0.175E-02    0.536E-03
DAV:   7    -0.233479709459E+03   -0.19045E-06   -0.46346E-06 12320   0.882E-03
  12 F= -.23347971E+03 E0= -.23347971E+03  d E =-.280003E-02  mag=     0.0000
       N       E                     dE             d eps       ncg     rms          rms(c)
DAV:   1    -0.233479855501E+03   -0.14623E-03   -0.15014E-01 11968   0.189E+00    0.108E-01
DAV:   2    -0.233480361332E+03   -0.50583E-03   -0.61066E-03 15728   0.416E-01    0.143E-01
DAV:   3    -0.233480115522E+03    0.24581E-03   -0.75140E-04 16656   0.233E-01    0.423E-02
DAV:   4    -0.233480084774E+03    0.30748E-04   -0.12200E-04 15824   0.555E-02    0.155E-02
DAV:   5    -0.233480082467E+03    0.23069E-05   -0.29833E-05 13616   0.203E-02    0.721E-03
DAV:   6    -0.233480082151E+03    0.31684E-06   -0.45166E-06 12992   0.918E-03
  13 F= -.23348008E+03 E0= -.23348008E+03  d E =-.317272E-02  mag=     0.0000
       N       E                     dE             d eps       ncg     rms          rms(c)
DAV:   1    -0.233480898631E+03   -0.81616E-03   -0.44585E-01 11968   0.291E+00    0.127E-01
DAV:   2    -0.233481825825E+03   -0.92719E-03   -0.12818E-02 13056   0.457E-01    0.104E-01
DAV:   3    -0.233481695833E+03    0.12999E-03   -0.71422E-04 16440   0.202E-01    0.813E-02
DAV:   4    -0.233481574327E+03    0.12151E-03   -0.30884E-04 16592   0.112E-01    0.338E-02
DAV:   5    -0.233481553722E+03    0.20605E-04   -0.15881E-04 13952   0.544E-02    0.118E-02
DAV:   6    -0.233481553078E+03    0.64368E-06   -0.22226E-05 13216   0.202E-02    0.742E-03
DAV:   7    -0.233481553009E+03    0.68982E-07   -0.67007E-06 12392   0.984E-03
  14 F= -.23348155E+03 E0= -.23348155E+03  d E =-.147086E-02  mag=    -0.0000
       N       E                     dE             d eps       ncg     rms          rms(c)
DAV:   1    -0.233481555062E+03   -0.19842E-05   -0.66206E-04 12088   0.112E-01    0.501E-03
DAV:   2    -0.233481555968E+03   -0.90573E-06   -0.18117E-05 13056   0.176E-02    0.456E-03
DAV:   3    -0.233481555684E+03    0.28365E-06   -0.79183E-07  7272   0.751E-03
  15 F= -.23348156E+03 E0= -.23348156E+03  d E =-.147353E-02  mag=    -0.0000
       N       E                     dE             d eps       ncg     rms          rms(c)
DAV:   1    -0.233482340368E+03   -0.78440E-03   -0.84721E-02 11968   0.123E+00    0.157E-01
DAV:   2    -0.233482668351E+03   -0.32798E-03   -0.47471E-03 16272   0.512E-01    0.220E-01
DAV:   3    -0.233482089375E+03    0.57898E-03   -0.13744E-03 16360   0.331E-01    0.556E-02
DAV:   4    -0.233482039741E+03    0.49634E-04   -0.31675E-04 15752   0.787E-02    0.213E-02
DAV:   5    -0.233482032327E+03    0.74131E-05   -0.50223E-05 13072   0.314E-02    0.109E-02
DAV:   6    -0.233482031718E+03    0.60929E-06   -0.18792E-05 14152   0.152E-02    0.383E-03
DAV:   7    -0.233482031679E+03    0.39290E-07   -0.15340E-06  7696   0.661E-03
  16 F= -.23348203E+03 E0= -.23348203E+03  d E =-.475995E-03  mag=    -0.0000
       N       E                     dE             d eps       ncg     rms          rms(c)
DAV:   1    -0.233482108915E+03   -0.77197E-04   -0.50508E-03 11976   0.299E-01    0.382E-02
DAV:   2    -0.233482126566E+03   -0.17651E-04   -0.28307E-04 16256   0.125E-01    0.532E-02
DAV:   3    -0.233482092473E+03    0.34094E-04   -0.79333E-05 16352   0.798E-02    0.136E-02
DAV:   4    -0.233482089016E+03    0.34565E-05   -0.19850E-05 15448   0.193E-02    0.523E-03
DAV:   5    -0.233482088591E+03    0.42561E-06   -0.30039E-06 10400   0.798E-03
  17 F= -.23348209E+03 E0= -.23348209E+03  d E =-.532906E-03  mag=    -0.0000
       N       E                     dE             d eps       ncg     rms          rms(c)
DAV:   1    -0.233482145307E+03   -0.56291E-04   -0.32979E-02 11968   0.891E-01    0.379E-02
DAV:   2    -0.233482211981E+03   -0.66675E-04   -0.12398E-03 13056   0.143E-01    0.302E-02
DAV:   3    -0.233482202022E+03    0.99596E-05   -0.94546E-05 16752   0.706E-02    0.284E-02
DAV:   4    -0.233482188281E+03    0.13741E-04   -0.38937E-05 16928   0.461E-02    0.853E-03
DAV:   5    -0.233482186736E+03    0.15447E-05   -0.11101E-05 13856   0.143E-02    0.331E-03
DAV:   6    -0.233482186444E+03    0.29272E-06   -0.14681E-06  8208   0.751E-03
  18 F= -.23348219E+03 E0= -.23348219E+03  d E =-.978531E-04  mag=     0.0000
       N       E                     dE             d eps       ncg     rms          rms(c)
DAV:   1    -0.233482191868E+03   -0.51315E-05   -0.14691E-03 12128   0.188E-01    0.828E-03
DAV:   2    -0.233482194871E+03   -0.30029E-05   -0.54407E-05 13040   0.304E-02    0.631E-03
DAV:   3    -0.233482194431E+03    0.43971E-06   -0.44032E-06 12432   0.155E-02
  19 F= -.23348219E+03 E0= -.23348219E+03  d E =-.105841E-03  mag=     0.0000
