       N       E                     dE             d eps       ncg     rms          rms(c)
DAV:   1     0.714428987632E+03    0.71443E+03   -0.61433E+04 24440   0.135E+03
DAV:   2    -0.208076278516E+03   -0.92251E+03   -0.89204E+03 29960   0.292E+02
DAV:   3    -0.276913324511E+03   -0.68837E+02   -0.68140E+02 28128   0.905E+01
DAV:   4    -0.279141666909E+03   -0.22283E+01   -0.22190E+01 33344   0.216E+01
DAV:   5    -0.279184540834E+03   -0.42874E-01   -0.42824E-01 29128   0.235E+00    0.481E+01
DAV:   6    -0.243689768060E+03    0.35495E+02   -0.30642E+02 33936   0.569E+01    0.500E+01
DAV:   7    -0.243101572384E+03    0.58820E+00   -0.16763E+02 34488   0.140E+02    0.210E+01
DAV:   8    -0.237313515751E+03    0.57881E+01   -0.19233E+01 30720   0.158E+01    0.148E+01
DAV:   9    -0.232637710187E+03    0.46758E+01   -0.60082E+00 34392   0.158E+01    0.504E+00
DAV:  10    -0.232529789057E+03    0.10792E+00   -0.46578E+00 35216   0.829E+00    0.930E+00
DAV:  11    -0.232353468150E+03    0.17632E+00   -0.26767E+00 33352   0.420E+00    0.324E+00
DAV:  12    -0.232541795083E+03   -0.18833E+00   -0.15909E+00 31952   0.205E+00    0.673E+00
DAV:  13    -0.232668600174E+03   -0.12681E+00   -0.10469E-01 34848   0.146E+00    0.591E+00
DAV:  14    -0.232644958136E+03    0.23642E-01   -0.21584E-01 32800   0.175E+00    0.508E+00
DAV:  15    -0.232647411636E+03   -0.24535E-02   -0.25444E-02 26696   0.611E-01    0.508E+00
DAV:  16    -0.232647833081E+03   -0.42144E-03   -0.41963E-04 32280   0.792E-02    0.509E+00
DAV:  17    -0.232645810216E+03    0.20229E-02   -0.21903E-04 33928   0.675E-02    0.505E+00
DAV:  18    -0.232649507159E+03   -0.36969E-02   -0.41282E-02 29600   0.607E-01    0.499E+00
DAV:  19    -0.232668723407E+03   -0.19216E-01   -0.17396E-01 33536   0.148E+00    0.456E+00
DAV:  20    -0.232887228603E+03   -0.21851E+00   -0.15706E+00 33824   0.517E+00    0.545E+00
DAV:  21    -0.232873976829E+03    0.13252E-01   -0.25264E-01 30208   0.172E+00    0.512E+00
DAV:  22    -0.232742881160E+03    0.13110E+00   -0.18311E-01 29096   0.116E+00    0.414E+00
DAV:  23    -0.232684856818E+03    0.58024E-01   -0.10743E-01 32248   0.885E-01    0.361E+00
DAV:  24    -0.232661452498E+03    0.23404E-01   -0.70111E-02 32208   0.506E-01    0.353E+00
DAV:  25    -0.232582793957E+03    0.78659E-01   -0.61885E-02 29896   0.811E-01    0.305E+00
DAV:  26    -0.232559663437E+03    0.23131E-01   -0.21473E-02 34160   0.621E-01    0.275E+00
DAV:  27    -0.232586688262E+03   -0.27025E-01   -0.75258E-03 30112   0.306E-01    0.294E+00
DAV:  28    -0.232595810526E+03   -0.91223E-02   -0.20803E-03 27528   0.148E-01    0.304E+00
DAV:  29    -0.232603096382E+03   -0.72859E-02   -0.58949E-04 33424   0.860E-02    0.311E+00
DAV:  30    -0.232602557687E+03    0.53869E-03   -0.94618E-05 31280   0.411E-02    0.313E+00
DAV:  31    -0.232601770679E+03    0.78701E-03   -0.22985E-04 33264   0.715E-02    0.314E+00
DAV:  32    -0.232603961909E+03   -0.21912E-02   -0.23942E-04 33496   0.640E-02    0.318E+00
DAV:  33    -0.232602161333E+03    0.18006E-02   -0.96017E-05 26576   0.292E-02    0.315E+00
DAV:  34    -0.232596363051E+03    0.57983E-02   -0.75629E-04 28824   0.765E-02    0.307E+00
DAV:  35    -0.232578303197E+03    0.18060E-01   -0.70121E-03 30136   0.264E-01    0.279E+00
DAV:  36    -0.232553164025E+03    0.25139E-01   -0.22642E-02 30672   0.477E-01    0.231E+00
DAV:  37    -0.232531954817E+03    0.21209E-01   -0.28767E-02 30840   0.552E-01    0.178E+00
DAV:  38    -0.232518162832E+03    0.13792E-01   -0.13520E-02 29600   0.370E-01    0.141E+00
DAV:  39    -0.232511107240E+03    0.70556E-02   -0.46126E-03 29536   0.204E-01    0.117E+00
DAV:  40    -0.232504642694E+03    0.64645E-02   -0.39108E-03 27192   0.179E-01    0.930E-01
DAV:  41    -0.232496552467E+03    0.80902E-02   -0.19207E-02 28032   0.419E-01    0.434E-01
DAV:  42    -0.232495459190E+03    0.10933E-02   -0.41814E-03 31624   0.214E-01    0.282E-01
DAV:  43    -0.232495133748E+03    0.32544E-03   -0.59739E-04 31744   0.754E-02    0.196E-01
DAV:  44    -0.232494853208E+03    0.28054E-03   -0.86581E-04 32256   0.947E-02    0.829E-02
DAV:  45    -0.232494841375E+03    0.11834E-04   -0.26356E-04 27496   0.424E-02    0.366E-02
DAV:  46    -0.232494831091E+03    0.10284E-04   -0.43110E-05 33744   0.257E-02    0.171E-02
DAV:  47    -0.232494832808E+03   -0.17176E-05   -0.26141E-05 28392   0.146E-02    0.502E-03
DAV:  48    -0.232494833144E+03   -0.33578E-06   -0.25837E-06 18192   0.494E-03
   1 F= -.23249483E+03 E0= -.23249483E+03  d E =-.232495E+03  mag=    -0.0002
       N       E                     dE             d eps       ncg     rms          rms(c)
DAV:   1    -0.231470634612E+03    0.10242E+01   -0.36479E+02 25024   0.948E+01    0.716E+00
DAV:   2    -0.233867067484E+03   -0.23964E+01   -0.25561E+01 28120   0.233E+01    0.568E+00
DAV:   3    -0.233958388048E+03   -0.91321E-01   -0.33604E+00 34480   0.116E+01    0.503E+00
DAV:   4    -0.233739207328E+03    0.21918E+00   -0.51340E-01 35216   0.464E+00    0.204E+00
DAV:   5    -0.233749565417E+03   -0.10358E-01   -0.22462E-01 31416   0.201E+00    0.860E-01
DAV:   6    -0.233763396175E+03   -0.13831E-01   -0.44856E-02 31592   0.953E-01    0.461E-01
DAV:   7    -0.233766686261E+03   -0.32901E-02   -0.10039E-02 29632   0.435E-01    0.269E-01
DAV:   8    -0.233768043089E+03   -0.13568E-02   -0.40119E-03 30024   0.260E-01    0.107E-01
DAV:   9    -0.233768190654E+03   -0.14757E-03   -0.66933E-04 30072   0.126E-01    0.476E-02
DAV:  10    -0.233768233292E+03   -0.42638E-04   -0.29611E-04 29080   0.678E-02    0.245E-02
DAV:  11    -0.233768238045E+03   -0.47533E-05   -0.37986E-05 28352   0.271E-02    0.143E-02
DAV:  12    -0.233768238293E+03   -0.24740E-06   -0.13706E-05 28680   0.154E-02    0.626E-03
DAV:  13    -0.233768238723E+03   -0.43046E-06   -0.25979E-06 20152   0.746E-03
   2 F= -.23376824E+03 E0= -.23376824E+03  d E =-.127341E+01  mag=    -0.0000
       N       E                     dE             d eps       ncg     rms          rms(c)
DAV:   1    -0.233769163812E+03   -0.92552E-03   -0.99058E-01 25024   0.539E+00    0.262E-01
DAV:   2    -0.233775661525E+03   -0.64977E-02   -0.72364E-02 30128   0.126E+00    0.489E-01
DAV:   3    -0.233773408319E+03    0.22532E-02   -0.98140E-03 35088   0.651E-01    0.142E-01
DAV:   4    -0.233773015679E+03    0.39264E-03   -0.96500E-04 35384   0.164E-01    0.650E-02
DAV:   5    -0.233772903528E+03    0.11215E-03   -0.72405E-04 28352   0.117E-01    0.222E-02
DAV:   6    -0.233772913713E+03   -0.10184E-04   -0.18134E-04 28680   0.529E-02    0.161E-02
DAV:   7    -0.233772912735E+03    0.97768E-06   -0.19404E-05 28056   0.177E-02    0.105E-02
DAV:   8    -0.233772912382E+03    0.35264E-06   -0.11645E-05 27800   0.113E-02    0.444E-03
DAV:   9    -0.233772912078E+03    0.30397E-06   -0.75551E-07 15552   0.596E-03
   3 F= -.23377291E+03 E0= -.23377291E+03  d E =-.127808E+01  mag=     0.0000
       N       E                     dE             d eps       ncg     rms          rms(c)
DAV:   1    -0.233694778500E+03    0.78134E-01   -0.18046E+02 25040   0.498E+01    0.385E+00
DAV:   2    -0.234445601037E+03   -0.75082E+00   -0.80213E+00 32928   0.214E+01    0.629E+00
DAV:   3    -0.233893770745E+03    0.55183E+00   -0.82982E-01 34848   0.773E+00    0.189E+00
DAV:   4    -0.233833798472E+03    0.59972E-01   -0.19605E-01 33296   0.194E+00    0.671E-01
DAV:   5    -0.233827635203E+03    0.61633E-02   -0.77549E-02 29152   0.124E+00    0.374E-01
DAV:   6    -0.233826980271E+03    0.65493E-03   -0.15002E-02 30496   0.494E-01    0.180E-01
DAV:   7    -0.233827037096E+03   -0.56825E-04   -0.20861E-03 27392   0.176E-01    0.996E-02
DAV:   8    -0.233827065481E+03   -0.28385E-04   -0.38865E-04 32080   0.976E-02    0.411E-02
DAV:   9    -0.233827084603E+03   -0.19122E-04   -0.11981E-04 29496   0.489E-02    0.147E-02
DAV:  10    -0.233827088883E+03   -0.42798E-05   -0.67207E-05 33968   0.368E-02    0.123E-02
DAV:  11    -0.233827087720E+03    0.11628E-05   -0.50806E-06 27104   0.122E-02    0.748E-03
DAV:  12    -0.233827087052E+03    0.66738E-06   -0.44802E-06 23216   0.818E-03
   4 F= -.23382709E+03 E0= -.23382709E+03  d E =-.541750E-01  mag=     0.0000
       N       E                     dE             d eps       ncg     rms          rms(c)
DAV:   1    -0.234043920426E+03   -0.21683E+00   -0.38371E+01 25024   0.231E+01    0.174E+00
DAV:   2    -0.234207863980E+03   -0.16394E+00   -0.15718E+00 32128   0.886E+00    0.380E+00
DAV:   3    -0.234067088791E+03    0.14078E+00   -0.36800E-01 33712   0.492E+00    0.622E-01
DAV:   4    -0.234058394854E+03    0.86939E-02   -0.31991E-02 27328   0.702E-01    0.340E-01
DAV:   5    -0.234057002111E+03    0.13927E-02   -0.11636E-02 29376   0.562E-01    0.101E-01
DAV:   6    -0.234057127959E+03   -0.12585E-03   -0.18932E-03 28752   0.164E-01    0.606E-02
DAV:   7    -0.234057151736E+03   -0.23777E-04   -0.21776E-04 29136   0.624E-02    0.380E-02
DAV:   8    -0.234057151147E+03    0.58888E-06   -0.58986E-05 28368   0.387E-02    0.160E-02
DAV:   9    -0.234057154106E+03   -0.29590E-05   -0.42193E-05 28624   0.252E-02    0.752E-03
DAV:  10    -0.234057153540E+03    0.56633E-06   -0.82501E-06 26192   0.119E-02
   5 F= -.23405715E+03 E0= -.23405715E+03  d E =-.284241E+00  mag=     0.0000
       N       E                     dE             d eps       ncg     rms          rms(c)
DAV:   1    -0.233123495347E+03    0.93366E+00   -0.13335E+02 25024   0.681E+01    0.258E+00
DAV:   2    -0.234113408507E+03   -0.98991E+00   -0.12251E+01 27088   0.136E+01    0.175E+00
DAV:   3    -0.234086913020E+03    0.26495E-01   -0.40059E-01 33408   0.308E+00    0.153E+00
DAV:   4    -0.234063015239E+03    0.23898E-01   -0.13459E-01 35152   0.240E+00    0.712E-01
DAV:   5    -0.234054866667E+03    0.81486E-02   -0.50314E-02 35072   0.118E+00    0.289E-01
DAV:   6    -0.234054280267E+03    0.58640E-03   -0.11359E-02 32528   0.483E-01    0.129E-01
DAV:   7    -0.234054352910E+03   -0.72643E-04   -0.21771E-03 27464   0.191E-01    0.870E-02
DAV:   8    -0.234054283370E+03    0.69540E-04   -0.63996E-04 28512   0.100E-01    0.249E-02
DAV:   9    -0.234054280368E+03    0.30018E-05   -0.14242E-04 31664   0.575E-02    0.145E-02
DAV:  10    -0.234054280908E+03   -0.54029E-06   -0.37064E-05 28184   0.240E-02    0.733E-03
DAV:  11    -0.234054281350E+03   -0.44208E-06   -0.93078E-06 26704   0.107E-02
   6 F= -.23405428E+03 E0= -.23405428E+03  d E =0.287219E-02  mag=    -0.0000
       N       E                     dE             d eps       ncg     rms          rms(c)
DAV:   1    -0.233975760941E+03    0.78520E-01   -0.33613E+01 25120   0.359E+01    0.159E+00
DAV:   2    -0.234269306007E+03   -0.29355E+00   -0.33285E+00 27600   0.857E+00    0.239E+00
DAV:   3    -0.234214090422E+03    0.55216E-01   -0.23385E-01 35248   0.354E+00    0.700E-01
DAV:   4    -0.234205511683E+03    0.85787E-02   -0.27189E-02 33328   0.801E-01    0.316E-01
DAV:   5    -0.234204492944E+03    0.10187E-02   -0.13028E-02 29072   0.540E-01    0.116E-01
DAV:   6    -0.234204721159E+03   -0.22821E-03   -0.38303E-03 29104   0.249E-01    0.749E-02
DAV:   7    -0.234204691474E+03    0.29684E-04   -0.38049E-04 27744   0.822E-02    0.415E-02
DAV:   8    -0.234204687756E+03    0.37185E-05   -0.15551E-04 28624   0.460E-02    0.145E-02
DAV:   9    -0.234204684388E+03    0.33684E-05   -0.16187E-05 30992   0.253E-02    0.624E-03
DAV:  10    -0.234204685257E+03   -0.86982E-06   -0.16380E-05 28464   0.143E-02    0.376E-03
DAV:  11    -0.234204685071E+03    0.18658E-06   -0.17892E-06 14816   0.658E-03
   7 F= -.23420469E+03 E0= -.23420469E+03  d E =-.147532E+00  mag=     0.0000
       N       E                     dE             d eps       ncg     rms          rms(c)
DAV:   1    -0.234249579188E+03   -0.44894E-01   -0.11193E+01 25024   0.133E+01    0.894E-01
DAV:   2    -0.234276655657E+03   -0.27076E-01   -0.37712E-01 32592   0.342E+00    0.122E+00
DAV:   3    -0.234257685514E+03    0.18970E-01   -0.43897E-02 33904   0.163E+00    0.405E-01
DAV:   4    -0.234252824153E+03    0.48614E-02   -0.14700E-02 30000   0.537E-01    0.156E-01
DAV:   5    -0.234252543961E+03    0.28019E-03   -0.49997E-03 28000   0.276E-01    0.817E-02
DAV:   6    -0.234252471922E+03    0.72040E-04   -0.85979E-04 28600   0.118E-01    0.411E-02
DAV:   7    -0.234252472235E+03   -0.31295E-06   -0.18018E-04 28024   0.505E-02    0.208E-02
DAV:   8    -0.234252467615E+03    0.46198E-05   -0.16565E-05 30032   0.222E-02    0.974E-03
DAV:   9    -0.234252468290E+03   -0.67529E-06   -0.14616E-05 28816   0.151E-02    0.483E-03
DAV:  10    -0.234252467920E+03    0.37024E-06   -0.25383E-06 17968   0.732E-03
   8 F= -.23425247E+03 E0= -.23425247E+03  d E =-.477828E-01  mag=    -0.0000
       N       E                     dE             d eps       ncg     rms          rms(c)
DAV:   1    -0.234252495300E+03   -0.27010E-04   -0.69152E-03 25312   0.332E-01    0.220E-02
DAV:   2    -0.234252510498E+03   -0.15197E-04   -0.22998E-04 32080   0.847E-02    0.304E-02
DAV:   3    -0.234252499314E+03    0.11184E-04   -0.28054E-05 33376   0.411E-02    0.103E-02
DAV:   4    -0.234252496075E+03    0.32387E-05   -0.92192E-06 28304   0.140E-02    0.387E-03
DAV:   5    -0.234252495921E+03    0.15389E-06   -0.31977E-06 19920   0.740E-03
   9 F= -.23425250E+03 E0= -.23425250E+03  d E =-.478109E-01  mag=    -0.0000
       N       E                     dE             d eps       ncg     rms          rms(c)
DAV:   1    -0.234267759437E+03   -0.15263E-01   -0.57075E+00 25024   0.110E+01    0.459E-01
DAV:   2    -0.234281209959E+03   -0.13451E-01   -0.19430E-01 27472   0.178E+00    0.325E-01
DAV:   3    -0.234280053863E+03    0.11561E-02   -0.95105E-03 35360   0.637E-01    0.293E-01
DAV:   4    -0.234278748389E+03    0.13055E-02   -0.39052E-03 34480   0.428E-01    0.105E-01
DAV:   5    -0.234278546397E+03    0.20199E-03   -0.12626E-03 32384   0.155E-01    0.369E-02
DAV:   6    -0.234278540198E+03    0.61982E-05   -0.16957E-04 31648   0.650E-02    0.224E-02
DAV:   7    -0.234278540841E+03   -0.64246E-06   -0.64914E-05 28768   0.296E-02    0.149E-02
DAV:   8    -0.234278539386E+03    0.14548E-05   -0.93981E-06 28736   0.130E-02    0.591E-03
DAV:   9    -0.234278539463E+03   -0.76729E-07   -0.37159E-06 25472   0.809E-03
  10 F= -.23427854E+03 E0= -.23427854E+03  d E =-.260435E-01  mag=     0.0000
       N       E                     dE             d eps       ncg     rms          rms(c)
DAV:   1    -0.234279026793E+03   -0.48741E-03   -0.16985E+00 25024   0.599E+00    0.249E-01
DAV:   2    -0.234283017072E+03   -0.39903E-02   -0.57487E-02 27488   0.965E-01    0.176E-01
DAV:   3    -0.234282669286E+03    0.34779E-03   -0.27674E-03 35392   0.343E-01    0.159E-01
DAV:   4    -0.234282286445E+03    0.38284E-03   -0.11669E-03 34464   0.235E-01    0.571E-02
DAV:   5    -0.234282228385E+03    0.58060E-04   -0.37012E-04 32672   0.849E-02    0.202E-02
DAV:   6    -0.234282226500E+03    0.18849E-05   -0.48742E-05 31808   0.352E-02    0.122E-02
DAV:   7    -0.234282226764E+03   -0.26394E-06   -0.19646E-05 28736   0.163E-02    0.810E-03
DAV:   8    -0.234282226364E+03    0.40021E-06   -0.25682E-06 19024   0.716E-03
  11 F= -.23428223E+03 E0= -.23428223E+03  d E =-.297304E-01  mag=    -0.0000
       N       E                     dE             d eps       ncg     rms          rms(c)
DAV:   1    -0.234265011764E+03    0.17215E-01   -0.30937E+00 25024   0.109E+01    0.380E-01
DAV:   2    -0.234289229755E+03   -0.24218E-01   -0.28072E-01 25952   0.186E+00    0.233E-01
DAV:   3    -0.234288763691E+03    0.46606E-03   -0.49119E-03 36224   0.380E-01    0.180E-01
DAV:   4    -0.234288514525E+03    0.24917E-03   -0.20209E-03 34880   0.322E-01    0.113E-01
DAV:   5    -0.234288382239E+03    0.13229E-03   -0.62641E-04 35552   0.159E-01    0.295E-02
DAV:   6    -0.234288382843E+03   -0.60425E-06   -0.81342E-05 29728   0.431E-02    0.148E-02
DAV:   7    -0.234288384749E+03   -0.19062E-05   -0.21985E-05 29264   0.195E-02    0.806E-03
DAV:   8    -0.234288384985E+03   -0.23536E-06   -0.39460E-06 24752   0.936E-03
  12 F= -.23428838E+03 E0= -.23428838E+03  d E =-.615862E-02  mag=    -0.0000
       N       E                     dE             d eps       ncg     rms          rms(c)
DAV:   1    -0.234288076551E+03    0.30820E-03   -0.65506E-02 25088   0.159E+00    0.548E-02
DAV:   2    -0.234288584873E+03   -0.50832E-03   -0.58937E-03 25856   0.269E-01    0.325E-02
DAV:   3    -0.234288571169E+03    0.13704E-04   -0.86700E-05 31344   0.433E-02    0.166E-02
DAV:   4    -0.234288569021E+03    0.21481E-05   -0.28585E-05 30608   0.224E-02    0.836E-03
DAV:   5    -0.234288568780E+03    0.24054E-06   -0.60581E-06 25184   0.158E-02
  13 F= -.23428857E+03 E0= -.23428857E+03  d E =-.634242E-02  mag=     0.0000
       N       E                     dE             d eps       ncg     rms          rms(c)
DAV:   1    -0.234289938860E+03   -0.13698E-02   -0.10593E+00 25024   0.428E+00    0.241E-01
DAV:   2    -0.234292945095E+03   -0.30062E-02   -0.36587E-02 32944   0.108E+00    0.374E-01
DAV:   3    -0.234291306902E+03    0.16382E-02   -0.49906E-03 34928   0.519E-01    0.108E-01
DAV:   4    -0.234291042141E+03    0.26476E-03   -0.82281E-04 32520   0.130E-01    0.530E-02
DAV:   5    -0.234290979543E+03    0.62598E-04   -0.44771E-04 28688   0.818E-02    0.207E-02
DAV:   6    -0.234290981509E+03   -0.19656E-05   -0.79212E-05 28512   0.355E-02    0.133E-02
DAV:   7    -0.234290981746E+03   -0.23717E-06   -0.13757E-05 27544   0.135E-02    0.746E-03
DAV:   8    -0.234290981948E+03   -0.20172E-06   -0.17872E-06 15872   0.638E-03
  14 F= -.23429098E+03 E0= -.23429098E+03  d E =-.241317E-02  mag=     0.0000
       N       E                     dE             d eps       ncg     rms          rms(c)
DAV:   1    -0.234291078364E+03   -0.96618E-04   -0.35762E-02 25056   0.787E-01    0.447E-02
DAV:   2    -0.234291179653E+03   -0.10129E-03   -0.12209E-03 32832   0.199E-01    0.695E-02
DAV:   3    -0.234291123401E+03    0.56252E-04   -0.17241E-04 34896   0.971E-02    0.195E-02
DAV:   4    -0.234291114367E+03    0.90338E-05   -0.28155E-05 32480   0.242E-02    0.932E-03
DAV:   5    -0.234291112332E+03    0.20359E-05   -0.13942E-05 28624   0.145E-02    0.372E-03
DAV:   6    -0.234291112333E+03   -0.93860E-09   -0.23377E-06 19008   0.629E-03
  15 F= -.23429111E+03 E0= -.23429111E+03  d E =-.254355E-02  mag=     0.0000
       N       E                     dE             d eps       ncg     rms          rms(c)
DAV:   1    -0.234290652148E+03    0.46018E-03   -0.42227E-01 25024   0.358E+00    0.139E-01
DAV:   2    -0.234292645709E+03   -0.19936E-02   -0.24805E-02 27296   0.638E-01    0.131E-01
DAV:   3    -0.234292467134E+03    0.17857E-03   -0.10208E-03 34800   0.239E-01    0.768E-02
DAV:   4    -0.234292358377E+03    0.10876E-03   -0.34795E-04 36464   0.109E-01    0.263E-02
DAV:   5    -0.234292352790E+03    0.55869E-05   -0.97567E-05 30048   0.423E-02    0.113E-02
DAV:   6    -0.234292353387E+03   -0.59724E-06   -0.20111E-05 29968   0.188E-02    0.569E-03
DAV:   7    -0.234292353273E+03    0.11417E-06   -0.26961E-06 19328   0.799E-03
  16 F= -.23429235E+03 E0= -.23429235E+03  d E =-.124094E-02  mag=    -0.0000
       N       E                     dE             d eps       ncg     rms          rms(c)
DAV:   1    -0.234292353168E+03    0.21965E-06   -0.10208E-05 25856   0.170E-02    0.148E-03
DAV:   2    -0.234292353126E+03    0.41307E-07   -0.68896E-07 16448   0.449E-03
  17 F= -.23429235E+03 E0= -.23429235E+03  d E =-.124079E-02  mag=    -0.0000
       N       E                     dE             d eps       ncg     rms          rms(c)
DAV:   1    -0.234291827261E+03    0.52591E-03   -0.17608E-01 25024   0.246E+00    0.853E-02
DAV:   2    -0.234293038443E+03   -0.12112E-02   -0.13767E-02 26192   0.419E-01    0.523E-02
DAV:   3    -0.234293024385E+03    0.14058E-04   -0.29945E-04 35072   0.113E-01    0.496E-02
DAV:   4    -0.234292998565E+03    0.25821E-04   -0.10988E-04 34960   0.759E-02    0.184E-02
DAV:   5    -0.234292995809E+03    0.27556E-05   -0.23859E-05 34736   0.247E-02    0.672E-03
DAV:   6    -0.234292996185E+03   -0.37605E-06   -0.36362E-06 21696   0.877E-03
  18 F= -.23429300E+03 E0= -.23429300E+03  d E =-.643059E-03  mag=    -0.0000
       N       E                     dE             d eps       ncg     rms          rms(c)
DAV:   1    -0.234292843584E+03    0.15222E-03   -0.34380E-02 25056   0.109E+00    0.379E-02
DAV:   2    -0.234293081718E+03   -0.23813E-03   -0.26895E-03 26240   0.185E-01    0.233E-02
DAV:   3    -0.234293078954E+03    0.27640E-05   -0.57847E-05 34976   0.500E-02    0.220E-02
DAV:   4    -0.234293074083E+03    0.48710E-05   -0.21783E-05 34960   0.338E-02    0.826E-03
DAV:   5    -0.234293073513E+03    0.57052E-06   -0.43113E-06 25792   0.110E-02
  19 F= -.23429307E+03 E0= -.23429307E+03  d E =-.720386E-03  mag=    -0.0000
       N       E                     dE             d eps       ncg     rms          rms(c)
DAV:   1    -0.234293196715E+03   -0.12263E-03   -0.67743E-02 25056   0.115E+00    0.393E-02
DAV:   2    -0.234293340506E+03   -0.14379E-03   -0.19674E-03 29056   0.196E-01    0.338E-02
DAV:   3    -0.234293328811E+03    0.11696E-04   -0.90629E-05 35568   0.594E-02    0.244E-02
DAV:   4    -0.234293317300E+03    0.11511E-04   -0.34227E-05 35584   0.372E-02    0.125E-02
DAV:   5    -0.234293314516E+03    0.27836E-05   -0.21120E-05 31200   0.212E-02    0.446E-03
DAV:   6    -0.234293314552E+03   -0.35685E-07   -0.41973E-06 21440   0.884E-03
  20 F= -.23429331E+03 E0= -.23429331E+03  d E =-.241040E-03  mag=    -0.0000
       N       E                     dE             d eps       ncg     rms          rms(c)
DAV:   1    -0.234293317168E+03   -0.26520E-05   -0.32929E-03 25056   0.253E-01    0.916E-03
DAV:   2    -0.234293324779E+03   -0.76106E-05   -0.98535E-05 29344   0.437E-02    0.777E-03
DAV:   3    -0.234293324160E+03    0.61862E-06   -0.36207E-06 22336   0.132E-02
  21 F= -.23429332E+03 E0= -.23429332E+03  d E =-.250648E-03  mag=    -0.0000
       N       E                     dE             d eps       ncg     rms          rms(c)
DAV:   1    -0.234292959298E+03    0.36548E-03   -0.75627E-02 25056   0.163E+00    0.549E-02
DAV:   2    -0.234293441429E+03   -0.48213E-03   -0.56404E-03 26240   0.269E-01    0.327E-02
DAV:   3    -0.234293430153E+03    0.11276E-04   -0.98760E-05 32896   0.477E-02    0.205E-02
DAV:   4    -0.234293429277E+03    0.87608E-06   -0.38851E-05 34512   0.426E-02    0.193E-02
DAV:   5    -0.234293425524E+03    0.37526E-05   -0.16759E-05 34512   0.284E-02    0.529E-03
DAV:   6    -0.234293425345E+03    0.17868E-06   -0.16842E-06 16464   0.742E-03
  22 F= -.23429343E+03 E0= -.23429343E+03  d E =-.101185E-03  mag=    -0.0000
       N       E                     dE             d eps       ncg     rms          rms(c)
DAV:   1    -0.234293411055E+03    0.14469E-04   -0.37130E-03 25056   0.362E-01    0.118E-02
DAV:   2    -0.234293434945E+03   -0.23890E-04   -0.27664E-04 26112   0.597E-02    0.685E-03
DAV:   3    -0.234293434459E+03    0.48572E-06   -0.47066E-06 25312   0.101E-02
  23 F= -.23429343E+03 E0= -.23429343E+03  d E =-.110299E-03  mag=     0.0000
       N       E                     dE             d eps       ncg     rms          rms(c)
DAV:   1    -0.234293443863E+03   -0.89174E-05   -0.15491E-02 25056   0.611E-01    0.195E-02
DAV:   2    -0.234293502152E+03   -0.58290E-04   -0.67307E-04 27392   0.959E-02    0.133E-02
DAV:   3    -0.234293498596E+03    0.35562E-05   -0.11589E-05 30448   0.165E-02    0.764E-03
DAV:   4    -0.234293497731E+03    0.86469E-06   -0.93079E-06 30800   0.144E-02
  24 F= -.23429350E+03 E0= -.23429350E+03  d E =-.632718E-04  mag=     0.0000
       N       E                     dE             d eps       ncg     rms          rms(c)
DAV:   1    -0.234293497700E+03    0.89617E-06   -0.17731E-03 25056   0.207E-01    0.802E-03
DAV:   2    -0.234293504322E+03   -0.66222E-05   -0.78640E-05 27680   0.335E-02    0.578E-03
DAV:   3    -0.234293504088E+03    0.23383E-06   -0.22418E-06 19152   0.107E-02
  25 F= -.23429350E+03 E0= -.23429350E+03  d E =-.696287E-04  mag=     0.0000
       N       E                     dE             d eps       ncg     rms          rms(c)
DAV:   1    -0.234293471027E+03    0.33295E-04   -0.70030E-03 25056   0.412E-01    0.146E-02
DAV:   2    -0.234293496526E+03   -0.25500E-04   -0.30279E-04 27552   0.651E-02    0.101E-02
DAV:   3    -0.234293494790E+03    0.17362E-05   -0.59981E-06 27152   0.137E-02    0.648E-03
DAV:   4    -0.234293494441E+03    0.34882E-06   -0.44887E-06 22912   0.147E-02
  26 F= -.23429349E+03 E0= -.23429349E+03  d E =-.599819E-04  mag=     0.0000
       N       E                     dE             d eps       ncg     rms          rms(c)
DAV:   1    -0.234293490620E+03    0.41702E-05   -0.40125E-03 25056   0.311E-01    0.968E-03
DAV:   2    -0.234293505708E+03   -0.15088E-04   -0.17709E-04 27360   0.509E-02    0.792E-03
DAV:   3    -0.234293504757E+03    0.95063E-06   -0.32602E-06 21872   0.115E-02
  27 F= -.23429350E+03 E0= -.23429350E+03  d E =-.702977E-04  mag=     0.0000
       N       E                     dE             d eps       ncg     rms          rms(c)
DAV:   1    -0.234293529129E+03   -0.23422E-04   -0.11100E-02 25056   0.428E-01    0.153E-02
DAV:   2    -0.234293547765E+03   -0.18636E-04   -0.23342E-04 27840   0.576E-02    0.106E-02
DAV:   3    -0.234293546267E+03    0.14974E-05   -0.10450E-05 32976   0.206E-02    0.900E-03
DAV:   4    -0.234293545029E+03    0.12385E-05   -0.36803E-06 21824   0.138E-02    0.406E-03
DAV:   5    -0.234293544738E+03    0.29107E-06   -0.19984E-06 16592   0.757E-03
  28 F= -.23429354E+03 E0= -.23429354E+03  d E =-.399808E-04  mag=    -0.0000
