       N       E                     dE             d eps       ncg     rms          rms(c)
DAV:   1     0.120186520219E+04    0.12019E+04   -0.59462E+04 50296   0.117E+03
DAV:   2    -0.124949459819E+03   -0.13268E+04   -0.12378E+04 55320   0.319E+02
DAV:   3    -0.263892491010E+03   -0.13894E+03   -0.13524E+03 69928   0.123E+02
DAV:   4    -0.272253139170E+03   -0.83606E+01   -0.83081E+01 82840   0.371E+01
DAV:   5    -0.272348597130E+03   -0.95458E-01   -0.95234E-01 79296   0.497E+00    0.429E+01
DAV:   6    -0.235582822607E+03    0.36766E+02   -0.15891E+02 79432   0.392E+01    0.134E+01
DAV:   7    -0.239698870691E+03   -0.41160E+01   -0.11134E+01 76728   0.118E+01    0.829E+00
DAV:   8    -0.241315865639E+03   -0.16170E+01   -0.13292E+00 73392   0.415E+00    0.311E+00
DAV:   9    -0.241557334776E+03   -0.24147E+00   -0.48809E-01 65760   0.212E+00    0.706E-01
DAV:  10    -0.241556218104E+03    0.11167E-02   -0.87869E-02 81448   0.103E+00    0.406E-01
DAV:  11    -0.241558834528E+03   -0.26164E-02   -0.12163E-02 78328   0.408E-01    0.232E-01
DAV:  12    -0.241559451403E+03   -0.61688E-03   -0.12487E-03 69824   0.130E-01    0.114E-01
DAV:  13    -0.241560031799E+03   -0.58040E-03   -0.14887E-03 63440   0.115E-01    0.357E-02
DAV:  14    -0.241560058826E+03   -0.27027E-04   -0.17169E-04 70488   0.651E-02    0.197E-02
DAV:  15    -0.241560060490E+03   -0.16632E-05   -0.38612E-05 75448   0.208E-02    0.907E-03
DAV:  16    -0.241560062588E+03   -0.20986E-05   -0.86192E-06 74960   0.109E-02    0.605E-03
DAV:  17    -0.241560063208E+03   -0.61992E-06   -0.17122E-06 61792   0.434E-03    0.278E-03
DAV:  18    -0.241560063219E+03   -0.10778E-07   -0.52343E-07 61328   0.302E-03
   1 F= -.24156006E+03 E0= -.24156006E+03  d E =-.241560E+03  mag=     0.0002
       N       E                     dE             d eps       ncg     rms          rms(c)
DAV:   1    -0.240442905147E+03    0.11172E+01   -0.69972E+02 52176   0.899E+01    0.371E+00
DAV:   2    -0.243047056569E+03   -0.26042E+01   -0.33591E+01 77008   0.243E+01    0.349E+00
DAV:   3    -0.242775991609E+03    0.27106E+00   -0.10213E+00 79424   0.428E+00    0.193E+00
DAV:   4    -0.242678145226E+03    0.97846E-01   -0.30439E-01 70920   0.197E+00    0.576E-01
DAV:   5    -0.242672301083E+03    0.58441E-02   -0.60522E-02 74400   0.933E-01    0.204E-01
DAV:   6    -0.242672762743E+03   -0.46166E-03   -0.93876E-03 75112   0.332E-01    0.143E-01
DAV:   7    -0.242672455261E+03    0.30748E-03   -0.14003E-03 78456   0.152E-01    0.749E-02
DAV:   8    -0.242672426281E+03    0.28980E-04   -0.31561E-04 74544   0.671E-02    0.335E-02
DAV:   9    -0.242672407079E+03    0.19202E-04   -0.67027E-05 77216   0.378E-02    0.126E-02
DAV:  10    -0.242672406474E+03    0.60559E-06   -0.40273E-05 75176   0.223E-02    0.540E-03
DAV:  11    -0.242672406152E+03    0.32167E-06   -0.20775E-06 78064   0.682E-03    0.265E-03
DAV:  12    -0.242672406071E+03    0.80856E-07   -0.14596E-06 74896   0.418E-03    0.161E-03
DAV:  13    -0.242672406060E+03    0.10645E-07   -0.13385E-07 36168   0.183E-03
   2 F= -.24267241E+03 E0= -.24267241E+03  d E =-.111234E+01  mag=     0.0000
       N       E                     dE             d eps       ncg     rms          rms(c)
DAV:   1    -0.242773673894E+03   -0.10127E+00   -0.66181E+01 51968   0.277E+01    0.150E+00
DAV:   2    -0.242898688047E+03   -0.12501E+00   -0.23004E+00 76992   0.767E+00    0.931E-01
DAV:   3    -0.242881193460E+03    0.17495E-01   -0.86028E-02 76424   0.138E+00    0.466E-01
DAV:   4    -0.242873434036E+03    0.77594E-02   -0.37742E-02 66904   0.657E-01    0.124E-01
DAV:   5    -0.242874026441E+03   -0.59240E-03   -0.92077E-03 75616   0.348E-01    0.107E-01
DAV:   6    -0.242873881242E+03    0.14520E-03   -0.89585E-04 73608   0.112E-01    0.452E-02
DAV:   7    -0.242873888008E+03   -0.67657E-05   -0.16603E-04 76016   0.569E-02    0.229E-02
DAV:   8    -0.242873893708E+03   -0.57002E-05   -0.28209E-05 74064   0.209E-02    0.512E-03
DAV:   9    -0.242873895955E+03   -0.22474E-05   -0.70207E-06 73608   0.916E-03    0.469E-03
DAV:  10    -0.242873896104E+03   -0.14911E-06   -0.63567E-07 65888   0.362E-03    0.279E-03
DAV:  11    -0.242873896209E+03   -0.10505E-06   -0.64963E-07 66376   0.268E-03    0.562E-04
DAV:  12    -0.242873896171E+03    0.38294E-07   -0.99083E-08 33216   0.127E-03
   3 F= -.24287390E+03 E0= -.24287390E+03  d E =-.131383E+01  mag=    -0.0000
       N       E                     dE             d eps       ncg     rms          rms(c)
DAV:   1    -0.242981393388E+03   -0.10750E+00   -0.26759E+01 62592   0.249E+01    0.237E+00
DAV:   2    -0.243022957925E+03   -0.41565E-01   -0.21850E+00 65584   0.507E+00    0.111E+00
DAV:   3    -0.243005865287E+03    0.17093E-01   -0.17382E-01 78968   0.154E+00    0.411E-01
DAV:   4    -0.243003344975E+03    0.25203E-02   -0.17783E-02 76136   0.606E-01    0.177E-01
DAV:   5    -0.243002830310E+03    0.51467E-03   -0.18792E-03 68392   0.181E-01    0.756E-02
DAV:   6    -0.243002856840E+03   -0.26530E-04   -0.64277E-04 74936   0.899E-02    0.331E-02
DAV:   7    -0.243002859806E+03   -0.29656E-05   -0.11119E-04 76784   0.430E-02    0.144E-02
DAV:   8    -0.243002862264E+03   -0.24581E-05   -0.19456E-05 67936   0.200E-02    0.633E-03
DAV:   9    -0.243002863373E+03   -0.11088E-05   -0.65617E-06 73888   0.957E-03    0.250E-03
DAV:  10    -0.243002863373E+03   -0.57662E-09   -0.12263E-06 74472   0.508E-03    0.114E-03
DAV:  11    -0.243002863340E+03    0.33500E-07   -0.30579E-07 44056   0.189E-03
   4 F= -.24300286E+03 E0= -.24300286E+03  d E =-.128967E+00  mag=     0.0000
       N       E                     dE             d eps       ncg     rms          rms(c)
DAV:   1    -0.243004154784E+03   -0.12914E-02   -0.23001E-01 61840   0.228E+00    0.220E-01
DAV:   2    -0.243004475489E+03   -0.32071E-03   -0.18565E-02 66768   0.478E-01    0.103E-01
DAV:   3    -0.243004307369E+03    0.16812E-03   -0.13912E-03 74264   0.138E-01    0.381E-02
DAV:   4    -0.243004286283E+03    0.21086E-04   -0.16625E-04 76704   0.644E-02    0.161E-02
DAV:   5    -0.243004279578E+03    0.67047E-05   -0.18089E-05 65752   0.178E-02    0.767E-03
DAV:   6    -0.243004277977E+03    0.16010E-05   -0.60976E-06 79496   0.957E-03    0.321E-03
DAV:   7    -0.243004277497E+03    0.48075E-06   -0.10773E-06 72224   0.428E-03    0.141E-03
DAV:   8    -0.243004277202E+03    0.29474E-06   -0.19356E-07 39056   0.203E-03    0.659E-04
DAV:   9    -0.243004277129E+03    0.72376E-07   -0.48025E-08 30976   0.145E-03
   5 F= -.24300428E+03 E0= -.24300428E+03  d E =-.130381E+00  mag=     0.0000
       N       E                     dE             d eps       ncg     rms          rms(c)
DAV:   1    -0.243022507561E+03   -0.18230E-01   -0.62910E+00 59872   0.100E+01    0.708E-01
DAV:   2    -0.243033566273E+03   -0.11059E-01   -0.27969E-01 68048   0.194E+00    0.361E-01
DAV:   3    -0.243030995333E+03    0.25709E-02   -0.17268E-02 76472   0.506E-01    0.141E-01
DAV:   4    -0.243030666939E+03    0.32839E-03   -0.19863E-03 76696   0.212E-01    0.591E-02
DAV:   5    -0.243030614265E+03    0.52675E-04   -0.34485E-04 69080   0.667E-02    0.265E-02
DAV:   6    -0.243030610678E+03    0.35866E-05   -0.49084E-05 78056   0.310E-02    0.114E-02
DAV:   7    -0.243030609282E+03    0.13961E-05   -0.12589E-05 76496   0.137E-02    0.529E-03
DAV:   8    -0.243030608543E+03    0.73854E-06   -0.17620E-06 74288   0.625E-03    0.246E-03
DAV:   9    -0.243030608420E+03    0.12384E-06   -0.10651E-06 63552   0.334E-03    0.861E-04
DAV:  10    -0.243030608400E+03    0.19318E-07   -0.11444E-07 35768   0.198E-03
   6 F= -.24303061E+03 E0= -.24303061E+03  d E =-.263313E-01  mag=     0.0000
       N       E                     dE             d eps       ncg     rms          rms(c)
DAV:   1    -0.243030765688E+03   -0.15727E-03   -0.71585E-02 60760   0.107E+00    0.761E-02
DAV:   2    -0.243030884799E+03   -0.11911E-03   -0.31673E-03 67888   0.205E-01    0.380E-02
DAV:   3    -0.243030854684E+03    0.30115E-04   -0.19793E-04 76072   0.534E-02    0.150E-02
DAV:   4    -0.243030850610E+03    0.40741E-05   -0.22476E-05 76544   0.223E-02    0.631E-03
DAV:   5    -0.243030849428E+03    0.11821E-05   -0.37999E-06 69112   0.701E-03    0.275E-03
DAV:   6    -0.243030849075E+03    0.35280E-06   -0.49692E-07 59528   0.319E-03    0.120E-03
DAV:   7    -0.243030848907E+03    0.16734E-06   -0.11443E-07 35896   0.172E-03    0.496E-04
DAV:   8    -0.243030848854E+03    0.53487E-07   -0.34465E-08 30888   0.142E-03
   7 F= -.24303085E+03 E0= -.24303085E+03  d E =-.265717E-01  mag=    -0.0000
       N       E                     dE             d eps       ncg     rms          rms(c)
DAV:   1    -0.243037158878E+03   -0.63100E-02   -0.13903E+00 51968   0.446E+00    0.191E-01
DAV:   2    -0.243040691967E+03   -0.35331E-02   -0.47173E-02 73032   0.870E-01    0.122E-01
DAV:   3    -0.243040389012E+03    0.30295E-03   -0.15898E-03 80880   0.175E-01    0.621E-02
DAV:   4    -0.243040305889E+03    0.83123E-04   -0.40433E-04 77784   0.800E-02    0.221E-02
DAV:   5    -0.243040306418E+03   -0.52902E-06   -0.85167E-05 74976   0.383E-02    0.129E-02
DAV:   6    -0.243040308055E+03   -0.16370E-05   -0.23028E-05 78712   0.177E-02    0.806E-03
DAV:   7    -0.243040307319E+03    0.73641E-06   -0.21041E-06 75664   0.706E-03    0.411E-03
DAV:   8    -0.243040307289E+03    0.29429E-07   -0.17328E-06 72360   0.509E-03    0.162E-03
DAV:   9    -0.243040307226E+03    0.63209E-07   -0.33020E-07 47592   0.252E-03
   8 F= -.24304031E+03 E0= -.24304031E+03  d E =-.945837E-02  mag=    -0.0000
       N       E                     dE             d eps       ncg     rms          rms(c)
DAV:   1    -0.243040684333E+03   -0.37704E-03   -0.31097E-01 52000   0.212E+00    0.900E-02
DAV:   2    -0.243041479360E+03   -0.79503E-03   -0.10581E-02 72944   0.413E-01    0.578E-02
DAV:   3    -0.243041412132E+03    0.67228E-04   -0.35827E-04 80688   0.831E-02    0.296E-02
DAV:   4    -0.243041393656E+03    0.18476E-04   -0.91361E-05 78208   0.382E-02    0.105E-02
DAV:   5    -0.243041393921E+03   -0.26524E-06   -0.19150E-05 74832   0.183E-02    0.613E-03
DAV:   6    -0.243041394414E+03   -0.49277E-06   -0.53285E-06 77080   0.858E-03    0.385E-03
DAV:   7    -0.243041394275E+03    0.13822E-06   -0.48272E-07 65920   0.346E-03    0.200E-03
DAV:   8    -0.243041394302E+03   -0.26473E-07   -0.45053E-07 60104   0.259E-03
   9 F= -.24304139E+03 E0= -.24304139E+03  d E =-.105454E-01  mag=     0.0000
       N       E                     dE             d eps       ncg     rms          rms(c)
DAV:   1    -0.243039807841E+03    0.15864E-02   -0.11901E+00 53808   0.522E+00    0.208E-01
DAV:   2    -0.243045882347E+03   -0.60745E-02   -0.74146E-02 67536   0.973E-01    0.120E-01
DAV:   3    -0.243045647976E+03    0.23437E-03   -0.20049E-03 77632   0.181E-01    0.621E-02
DAV:   4    -0.243045567692E+03    0.80284E-04   -0.35774E-04 73416   0.770E-02    0.179E-02
DAV:   5    -0.243045572854E+03   -0.51622E-05   -0.79035E-05 73008   0.332E-02    0.107E-02
DAV:   6    -0.243045573419E+03   -0.56447E-06   -0.12450E-05 77344   0.131E-02    0.635E-03
DAV:   7    -0.243045573159E+03    0.25986E-06   -0.14877E-06 72384   0.565E-03    0.285E-03
DAV:   8    -0.243045573275E+03   -0.11587E-06   -0.78435E-07 63888   0.365E-03    0.120E-03
DAV:   9    -0.243045573260E+03    0.15374E-07   -0.15575E-07 38024   0.204E-03
  10 F= -.24304557E+03 E0= -.24304557E+03  d E =-.417896E-02  mag=    -0.0000
       N       E                     dE             d eps       ncg     rms          rms(c)
DAV:   1    -0.243045556528E+03    0.16747E-04   -0.84820E-03 55296   0.441E-01    0.175E-02
DAV:   2    -0.243045600113E+03   -0.43585E-04   -0.52940E-04 67360   0.821E-02    0.101E-02
DAV:   3    -0.243045598501E+03    0.16122E-05   -0.14456E-05 76968   0.153E-02    0.527E-03
DAV:   4    -0.243045597981E+03    0.51986E-06   -0.26018E-06 74312   0.663E-03    0.152E-03
DAV:   5    -0.243045598067E+03   -0.85788E-07   -0.56220E-07 54992   0.285E-03
  11 F= -.24304560E+03 E0= -.24304560E+03  d E =-.420377E-02  mag=     0.0000
       N       E                     dE             d eps       ncg     rms          rms(c)
DAV:   1    -0.243045722679E+03   -0.12470E-03   -0.19986E-01 56536   0.190E+00    0.995E-02
DAV:   2    -0.243046327303E+03   -0.60462E-03   -0.96324E-03 71160   0.360E-01    0.556E-02
DAV:   3    -0.243046256615E+03    0.70688E-04   -0.43635E-04 77272   0.883E-02    0.246E-02
DAV:   4    -0.243046244463E+03    0.12152E-04   -0.77629E-05 79192   0.391E-02    0.102E-02
DAV:   5    -0.243046242236E+03    0.22267E-05   -0.11753E-05 77416   0.146E-02    0.490E-03
DAV:   6    -0.243046241525E+03    0.71160E-06   -0.20757E-06 76752   0.720E-03    0.234E-03
DAV:   7    -0.243046241260E+03    0.26519E-06   -0.60768E-07 65056   0.369E-03    0.115E-03
DAV:   8    -0.243046241142E+03    0.11756E-06   -0.15279E-07 40856   0.211E-03    0.441E-04
DAV:   9    -0.243046241146E+03   -0.42728E-08   -0.51434E-08 34144   0.159E-03
  12 F= -.24304624E+03 E0= -.24304624E+03  d E =-.643079E-03  mag=    -0.0000
       N       E                     dE             d eps       ncg     rms          rms(c)
DAV:   1    -0.243046243567E+03   -0.24252E-05   -0.20594E-03 57704   0.193E-01    0.101E-02
DAV:   2    -0.243046250091E+03   -0.65239E-05   -0.98915E-05 71088   0.365E-02    0.560E-03
DAV:   3    -0.243046249604E+03    0.48723E-06   -0.44733E-06 77288   0.894E-03    0.248E-03
DAV:   4    -0.243046249554E+03    0.49865E-07   -0.78200E-07 72328   0.395E-03
  13 F= -.24304625E+03 E0= -.24304625E+03  d E =-.651487E-03  mag=     0.0000
       N       E                     dE             d eps       ncg     rms          rms(c)
DAV:   1    -0.243046403157E+03   -0.15355E-03   -0.60568E-02 52080   0.923E-01    0.444E-02
DAV:   2    -0.243046542203E+03   -0.13905E-03   -0.19307E-03 72832   0.180E-01    0.276E-02
DAV:   3    -0.243046525210E+03    0.16993E-04   -0.58789E-05 79328   0.347E-02    0.135E-02
DAV:   4    -0.243046521863E+03    0.33470E-05   -0.19915E-05 79440   0.172E-02    0.447E-03
DAV:   5    -0.243046521986E+03   -0.12245E-06   -0.35178E-06 72880   0.733E-03    0.274E-03
DAV:   6    -0.243046522064E+03   -0.78618E-07   -0.94007E-07 62440   0.337E-03
  14 F= -.24304652E+03 E0= -.24304652E+03  d E =-.272510E-03  mag=    -0.0000
       N       E                     dE             d eps       ncg     rms          rms(c)
DAV:   1    -0.243046528281E+03   -0.62953E-05   -0.10356E-02 52424   0.382E-01    0.186E-02
DAV:   2    -0.243046552437E+03   -0.24156E-04   -0.33134E-04 72912   0.745E-02    0.114E-02
DAV:   3    -0.243046549713E+03    0.27241E-05   -0.10132E-05 79192   0.144E-02    0.554E-03
DAV:   4    -0.243046549264E+03    0.44871E-06   -0.33138E-06 79760   0.712E-03    0.187E-03
DAV:   5    -0.243046549324E+03   -0.59169E-07   -0.56974E-07 55856   0.303E-03
  15 F= -.24304655E+03 E0= -.24304655E+03  d E =-.299770E-03  mag=    -0.0000
       N       E                     dE             d eps       ncg     rms          rms(c)
DAV:   1    -0.243046415985E+03    0.13328E-03   -0.44906E-02 54416   0.103E+00    0.370E-02
DAV:   2    -0.243046708572E+03   -0.29259E-03   -0.32810E-03 67792   0.200E-01    0.199E-02
DAV:   3    -0.243046705520E+03    0.30521E-05   -0.71928E-05 72584   0.314E-02    0.116E-02
DAV:   4    -0.243046703135E+03    0.23846E-05   -0.16072E-05 70104   0.153E-02    0.334E-03
DAV:   5    -0.243046703361E+03   -0.22565E-06   -0.35588E-06 71816   0.691E-03    0.262E-03
DAV:   6    -0.243046703364E+03   -0.35279E-08   -0.63322E-07 62432   0.283E-03
  16 F= -.24304670E+03 E0= -.24304670E+03  d E =-.154041E-03  mag=    -0.0000
       N       E                     dE             d eps       ncg     rms          rms(c)
DAV:   1    -0.243046655072E+03    0.48289E-04   -0.10825E-02 54488   0.506E-01    0.184E-02
DAV:   2    -0.243046725655E+03   -0.70583E-04   -0.79150E-04 67696   0.982E-02    0.980E-03
DAV:   3    -0.243046724945E+03    0.71013E-06   -0.17432E-05 72712   0.154E-02    0.569E-03
DAV:   4    -0.243046724374E+03    0.57054E-06   -0.37743E-06 70072   0.746E-03    0.165E-03
DAV:   5    -0.243046724426E+03   -0.51829E-07   -0.83295E-07 56224   0.336E-03
  17 F= -.24304672E+03 E0= -.24304672E+03  d E =-.175103E-03  mag=     0.0000
       N       E                     dE             d eps       ncg     rms          rms(c)
DAV:   1    -0.243046589372E+03    0.13500E-03   -0.34715E-02 54432   0.918E-01    0.341E-02
DAV:   2    -0.243046812070E+03   -0.22270E-03   -0.25881E-03 69360   0.179E-01    0.189E-02
DAV:   3    -0.243046808035E+03    0.40351E-05   -0.53237E-05 74392   0.290E-02    0.106E-02
DAV:   4    -0.243046805950E+03    0.20847E-05   -0.12247E-05 70720   0.139E-02    0.322E-03
DAV:   5    -0.243046806068E+03   -0.11807E-06   -0.25804E-06 73944   0.616E-03    0.224E-03
DAV:   6    -0.243046806073E+03   -0.46184E-08   -0.51808E-07 55600   0.253E-03
  18 F= -.24304681E+03 E0= -.24304681E+03  d E =-.816466E-04  mag=    -0.0000
       N       E                     dE             d eps       ncg     rms          rms(c)
DAV:   1    -0.243046801352E+03    0.47166E-05   -0.11310E-03 55048   0.166E-01    0.632E-03
DAV:   2    -0.243046808610E+03   -0.72586E-05   -0.84509E-05 69152   0.324E-02    0.341E-03
DAV:   3    -0.243046808479E+03    0.13154E-06   -0.17387E-06 70200   0.526E-03    0.192E-03
DAV:   4    -0.243046808410E+03    0.68524E-07   -0.36999E-07 61072   0.255E-03
  19 F= -.24304681E+03 E0= -.24304681E+03  d E =-.839839E-04  mag=    -0.0000
       N       E                     dE             d eps       ncg     rms          rms(c)
DAV:   1    -0.243046730645E+03    0.77834E-04   -0.19959E-02 53920   0.678E-01    0.252E-02
DAV:   2    -0.243046851752E+03   -0.12111E-03   -0.13969E-03 68224   0.133E-01    0.136E-02
DAV:   3    -0.243046850110E+03    0.16414E-05   -0.29801E-05 74216   0.207E-02    0.775E-03
DAV:   4    -0.243046849157E+03    0.95302E-06   -0.63945E-06 69424   0.100E-02    0.219E-03
DAV:   5    -0.243046849285E+03   -0.12813E-06   -0.15006E-06 66536   0.452E-03    0.166E-03
DAV:   6    -0.243046849304E+03   -0.18983E-07   -0.23051E-07 39760   0.187E-03
  20 F= -.24304685E+03 E0= -.24304685E+03  d E =-.408943E-04  mag=    -0.0000
       N       E                     dE             d eps       ncg     rms          rms(c)
DAV:   1    -0.243046847439E+03    0.18459E-05   -0.39251E-04 55056   0.951E-02    0.367E-03
DAV:   2    -0.243046849866E+03   -0.24270E-05   -0.27704E-05 68840   0.187E-02    0.193E-03
DAV:   3    -0.243046849838E+03    0.28448E-07   -0.56901E-07 56680   0.293E-03
  21 F= -.24304685E+03 E0= -.24304685E+03  d E =-.414279E-04  mag=    -0.0000
       N       E                     dE             d eps       ncg     rms          rms(c)
DAV:   1    -0.243046821056E+03    0.28811E-04   -0.10596E-02 53704   0.460E-01    0.176E-02
DAV:   2    -0.243046872082E+03   -0.51027E-04   -0.60915E-04 70048   0.894E-02    0.993E-03
DAV:   3    -0.243046870484E+03    0.15988E-05   -0.14583E-05 73232   0.152E-02    0.548E-03
DAV:   4    -0.243046869754E+03    0.73006E-06   -0.33363E-06 73416   0.749E-03    0.164E-03
DAV:   5    -0.243046869785E+03   -0.31242E-07   -0.84737E-07 60192   0.349E-03
  22 F= -.24304687E+03 E0= -.24304687E+03  d E =-.199469E-04  mag=     0.0000
       N       E                     dE             d eps       ncg     rms          rms(c)
DAV:   1    -0.243046869508E+03    0.24573E-06   -0.82762E-05 56456   0.408E-02    0.180E-03
DAV:   2    -0.243046869922E+03   -0.41380E-06   -0.49171E-06 73016   0.801E-03    0.977E-04
DAV:   3    -0.243046869905E+03    0.16144E-07   -0.10319E-07 42272   0.144E-03
  23 F= -.24304687E+03 E0= -.24304687E+03  d E =-.200676E-04  mag=    -0.0000
       N       E                     dE             d eps       ncg     rms          rms(c)
DAV:   1    -0.243046855330E+03    0.14591E-04   -0.52928E-03 53712   0.329E-01    0.122E-02
DAV:   2    -0.243046879810E+03   -0.24479E-04   -0.28732E-04 69056   0.633E-02    0.743E-03
DAV:   3    -0.243046878867E+03    0.94319E-06   -0.66659E-06 76736   0.111E-02    0.417E-03
DAV:   4    -0.243046878428E+03    0.43843E-06   -0.21335E-06 73488   0.586E-03    0.132E-03
DAV:   5    -0.243046878423E+03    0.50368E-08   -0.50782E-07 49752   0.266E-03
  24 F= -.24304688E+03 E0= -.24304688E+03  d E =-.851757E-05  mag=    -0.0000
       N       E                     dE             d eps       ncg     rms          rms(c)
DAV:   1    -0.243046878145E+03    0.28280E-06   -0.10687E-04 54632   0.467E-02    0.166E-03
DAV:   2    -0.243046878639E+03   -0.49395E-06   -0.58119E-06 68432   0.905E-03    0.105E-03
DAV:   3    -0.243046878623E+03    0.15973E-07   -0.12060E-07 48224   0.156E-03
  25 F= -.24304688E+03 E0= -.24304688E+03  d E =-.871779E-05  mag=    -0.0000
       N       E                     dE             d eps       ncg     rms          rms(c)
DAV:   1    -0.243046877651E+03    0.98839E-06   -0.11185E-03 54016   0.142E-01    0.652E-03
DAV:   2    -0.243046881892E+03   -0.42410E-05   -0.53315E-05 66384   0.266E-02    0.373E-03
DAV:   3    -0.243046881748E+03    0.14428E-06   -0.17664E-06 75656   0.531E-03    0.190E-03
DAV:   4    -0.243046881738E+03    0.99826E-08   -0.32696E-07 55152   0.249E-03
  26 F= -.24304688E+03 E0= -.24304688E+03  d E =-.311429E-05  mag=    -0.0000
       N       E                     dE             d eps       ncg     rms          rms(c)
DAV:   1    -0.243046881732E+03    0.15973E-07   -0.10368E-05 58352   0.140E-02    0.850E-04
DAV:   2    -0.243046881792E+03   -0.59985E-07   -0.48293E-07 52024   0.248E-03
  27 F= -.24304688E+03 E0= -.24304688E+03  d E =-.316828E-05  mag=     0.0000
       N       E                     dE             d eps       ncg     rms          rms(c)
DAV:   1    -0.243046880832E+03    0.89949E-06   -0.63025E-04 52656   0.115E-01    0.517E-03
DAV:   2    -0.243046883678E+03   -0.28454E-05   -0.36783E-05 63264   0.217E-02    0.289E-03
DAV:   3    -0.243046883523E+03    0.15426E-06   -0.12029E-06 70616   0.432E-03    0.144E-03
DAV:   4    -0.243046883439E+03    0.83906E-07   -0.15306E-07 39776   0.185E-03
  28 F= -.24304688E+03 E0= -.24304688E+03  d E =-.164781E-05  mag=    -0.0000
       N       E                     dE             d eps       ncg     rms          rms(c)
DAV:   1    -0.243046883352E+03    0.17156E-06   -0.19156E-05 56040   0.204E-02    0.101E-03
DAV:   2    -0.243046883421E+03   -0.68840E-07   -0.11722E-06 57272   0.365E-03    0.495E-04
DAV:   3    -0.243046883402E+03    0.18143E-07   -0.37034E-08 32120   0.918E-04
  29 F= -.24304688E+03 E0= -.24304688E+03  d E =-.161085E-05  mag=    -0.0000
       N       E                     dE             d eps       ncg     rms          rms(c)
DAV:   1    -0.243046882096E+03    0.13245E-05   -0.54360E-04 54016   0.101E-01    0.394E-03
DAV:   2    -0.243046884425E+03   -0.23292E-05   -0.27525E-05 72768   0.197E-02    0.230E-03
DAV:   3    -0.243046884345E+03    0.79822E-07   -0.62193E-07 58976   0.322E-03
  30 F= -.24304688E+03 E0= -.24304688E+03  d E =-.942954E-06  mag=    -0.0000
