       N       E                     dE             d eps       ncg     rms          rms(c)
DAV:   1     0.278259154975E+04    0.27826E+04   -0.73082E+04 82528   0.152E+03
DAV:   2     0.319809020613E+03   -0.24628E+04   -0.23921E+04 85728   0.562E+02
DAV:   3    -0.238952892684E+03   -0.55876E+03   -0.52510E+03133080   0.240E+02
DAV:   4    -0.299495322511E+03   -0.60542E+02   -0.59765E+02131416   0.980E+01
DAV:   5    -0.302272610790E+03   -0.27773E+01   -0.27560E+01131400   0.304E+01    0.389E+01
DAV:   6    -0.249197819638E+03    0.53075E+02   -0.26367E+02124224   0.592E+01    0.998E+00
DAV:   7    -0.250285705182E+03   -0.10879E+01   -0.18276E+01128496   0.224E+01    0.663E+00
DAV:   8    -0.250109657310E+03    0.17605E+00   -0.12932E+00130832   0.639E+00    0.215E+00
DAV:   9    -0.250118286885E+03   -0.86296E-02   -0.18716E-01127448   0.227E+00    0.845E-01
DAV:  10    -0.250100941761E+03    0.17345E-01   -0.60940E-02126424   0.993E-01    0.325E-01
DAV:  11    -0.250102057103E+03   -0.11153E-02   -0.30068E-02125056   0.733E-01    0.185E-01
DAV:  12    -0.250101833842E+03    0.22326E-03   -0.26465E-03131104   0.285E-01    0.125E-01
DAV:  13    -0.250102097792E+03   -0.26395E-03   -0.54616E-03133360   0.273E-01    0.965E-02
DAV:  14    -0.250101886964E+03    0.21083E-03   -0.95379E-04139264   0.128E-01    0.379E-02
DAV:  15    -0.250101895592E+03   -0.86280E-05   -0.40026E-04127248   0.644E-02    0.123E-02
DAV:  16    -0.250101895873E+03   -0.28067E-06   -0.31290E-05126208   0.308E-02    0.504E-03
DAV:  17    -0.250101895875E+03   -0.23210E-08   -0.54717E-06137880   0.111E-02    0.341E-03
DAV:  18    -0.250101895836E+03    0.39674E-07   -0.25662E-06108744   0.578E-03    0.180E-03
DAV:  19    -0.250101895844E+03   -0.77998E-08   -0.31134E-07 74288   0.312E-03
   1 F= -.25010190E+03 E0= -.25010190E+03  d E =-.250102E+03
       N       E                     dE             d eps       ncg     rms          rms(c)
DAV:   1    -0.251758482530E+03   -0.16566E+01   -0.20271E+03107904   0.209E+02    0.182E+01
DAV:   2    -0.257059649056E+03   -0.53012E+01   -0.13979E+02116008   0.519E+01    0.132E+01
DAV:   3    -0.253182441094E+03    0.38772E+01   -0.14221E+01129784   0.169E+01    0.610E+00
DAV:   4    -0.252582369603E+03    0.60007E+00   -0.70971E+00116880   0.116E+01    0.328E+00
DAV:   5    -0.252302951163E+03    0.27942E+00   -0.16369E+00125696   0.501E+00    0.871E-01
DAV:   6    -0.252294894048E+03    0.80571E-02   -0.19893E-01125232   0.198E+00    0.366E-01
DAV:   7    -0.252292574097E+03    0.23200E-02   -0.31249E-02125768   0.827E-01    0.284E-01
DAV:   8    -0.252292178541E+03    0.39556E-03   -0.25716E-02125832   0.508E-01    0.178E-01
DAV:   9    -0.252291558004E+03    0.62054E-03   -0.38188E-03131192   0.277E-01    0.120E-01
DAV:  10    -0.252291394866E+03    0.16314E-03   -0.25799E-03122512   0.148E-01    0.199E-02
DAV:  11    -0.252291415085E+03   -0.20219E-04   -0.31536E-04118696   0.728E-02    0.156E-02
DAV:  12    -0.252291419749E+03   -0.46644E-05   -0.32913E-05147336   0.234E-02    0.174E-02
DAV:  13    -0.252291412885E+03    0.68636E-05   -0.18221E-05127504   0.138E-02    0.694E-03
DAV:  14    -0.252291413111E+03   -0.22526E-06   -0.11334E-05114144   0.100E-02    0.198E-03
DAV:  15    -0.252291413278E+03   -0.16756E-06   -0.75871E-07 92832   0.451E-03    0.165E-03
DAV:  16    -0.252291413344E+03   -0.66297E-07   -0.29175E-07 67712   0.220E-03
   2 F= -.25229141E+03 E0= -.25229141E+03  d E =-.218952E+01
       N       E                     dE             d eps       ncg     rms          rms(c)
DAV:   1    -0.254253602128E+03   -0.19622E+01   -0.37158E+02 99432   0.960E+01    0.912E+00
DAV:   2    -0.253997359130E+03    0.25624E+00   -0.21222E+01 98304   0.195E+01    0.410E+00
DAV:   3    -0.253735634929E+03    0.26172E+00   -0.30830E+00129576   0.719E+00    0.180E+00
DAV:   4    -0.253671665445E+03    0.63969E-01   -0.56277E-01128440   0.300E+00    0.750E-01
DAV:   5    -0.253654573666E+03    0.17092E-01   -0.71632E-02127320   0.124E+00    0.311E-01
DAV:   6    -0.253653922461E+03    0.65120E-03   -0.18282E-02128808   0.641E-01    0.163E-01
DAV:   7    -0.253654002227E+03   -0.79767E-04   -0.71005E-03130168   0.300E-01    0.116E-01
DAV:   8    -0.253653736966E+03    0.26526E-03   -0.15632E-03133640   0.172E-01    0.514E-02
DAV:   9    -0.253653773524E+03   -0.36559E-04   -0.94376E-04129024   0.105E-01    0.370E-02
DAV:  10    -0.253653750665E+03    0.22859E-04   -0.12251E-04132904   0.491E-02    0.197E-02
DAV:  11    -0.253653750224E+03    0.44077E-06   -0.84235E-05124104   0.273E-02    0.691E-03
DAV:  12    -0.253653750070E+03    0.15433E-06   -0.57075E-06113496   0.109E-02    0.368E-03
DAV:  13    -0.253653750186E+03   -0.11616E-06   -0.13999E-06108640   0.483E-03    0.205E-03
DAV:  14    -0.253653750072E+03    0.11365E-06   -0.82579E-07103768   0.356E-03    0.810E-04
DAV:  15    -0.253653750026E+03    0.46615E-07   -0.14569E-07 63096   0.219E-03
   3 F= -.25365375E+03 E0= -.25365375E+03  d E =-.355185E+01
       N       E                     dE             d eps       ncg     rms          rms(c)
DAV:   1    -0.254566908165E+03   -0.91316E+00   -0.16373E+02103760   0.672E+01    0.578E+00
DAV:   2    -0.254356952980E+03    0.20996E+00   -0.93084E+00121624   0.149E+01    0.280E+00
DAV:   3    -0.254185865078E+03    0.17109E+00   -0.91185E-01128920   0.399E+00    0.947E-01
DAV:   4    -0.254176523686E+03    0.93414E-02   -0.11101E-01130160   0.156E+00    0.416E-01
DAV:   5    -0.254174022459E+03    0.25012E-02   -0.15945E-02139600   0.587E-01    0.183E-01
DAV:   6    -0.254173891707E+03    0.13075E-03   -0.43163E-03132712   0.303E-01    0.899E-02
DAV:   7    -0.254173841192E+03    0.50515E-04   -0.12417E-03131376   0.146E-01    0.393E-02
DAV:   8    -0.254173867998E+03   -0.26806E-04   -0.22014E-04120312   0.758E-02    0.188E-02
DAV:   9    -0.254173869545E+03   -0.15466E-05   -0.38023E-05130464   0.383E-02    0.702E-03
DAV:  10    -0.254173871303E+03   -0.17579E-05   -0.15551E-05129976   0.152E-02    0.435E-03
DAV:  11    -0.254173871000E+03    0.30292E-06   -0.14881E-06119544   0.668E-03    0.236E-03
DAV:  12    -0.254173870759E+03    0.24104E-06   -0.11628E-06109328   0.412E-03    0.108E-03
DAV:  13    -0.254173870667E+03    0.91404E-07   -0.22766E-07 66016   0.250E-03
   4 F= -.25417387E+03 E0= -.25417387E+03  d E =-.520121E+00
       N       E                     dE             d eps       ncg     rms          rms(c)
DAV:   1    -0.254174966825E+03   -0.10961E-02   -0.16759E-01110592   0.211E+00    0.186E-01
DAV:   2    -0.254174653438E+03    0.31339E-03   -0.91939E-03121008   0.499E-01    0.934E-02
DAV:   3    -0.254174465623E+03    0.18781E-03   -0.94049E-04127920   0.121E-01    0.361E-02
DAV:   4    -0.254174442972E+03    0.22651E-04   -0.12365E-04126304   0.669E-02    0.138E-02
DAV:   5    -0.254174437922E+03    0.50498E-05   -0.23288E-05134360   0.228E-02    0.659E-03
DAV:   6    -0.254174436542E+03    0.13801E-05   -0.69073E-06126168   0.123E-02    0.307E-03
DAV:   7    -0.254174436086E+03    0.45565E-06   -0.16433E-06116920   0.607E-03    0.157E-03
DAV:   8    -0.254174435794E+03    0.29222E-06   -0.39664E-07 81400   0.327E-03    0.703E-04
DAV:   9    -0.254174435670E+03    0.12377E-06   -0.73806E-08 55712   0.216E-03    0.309E-04
DAV:  10    -0.254174435653E+03    0.17522E-07   -0.31947E-08 49736   0.136E-03
   5 F= -.25417444E+03 E0= -.25417444E+03  d E =-.520686E+00
       N       E                     dE             d eps       ncg     rms          rms(c)
DAV:   1    -0.254205350546E+03   -0.30915E-01   -0.14470E+01 87912   0.241E+01    0.109E+00
DAV:   2    -0.254269348955E+03   -0.63998E-01   -0.96960E-01114984   0.502E+00    0.686E-01
DAV:   3    -0.254259438381E+03    0.99106E-02   -0.35207E-02128960   0.118E+00    0.340E-01
DAV:   4    -0.254257060899E+03    0.23775E-02   -0.17027E-02130192   0.621E-01    0.124E-01
DAV:   5    -0.254256909733E+03    0.15117E-03   -0.35831E-03124592   0.283E-01    0.928E-02
DAV:   6    -0.254256850660E+03    0.59073E-04   -0.14637E-03123272   0.135E-01    0.354E-02
DAV:   7    -0.254256843777E+03    0.68833E-05   -0.14730E-04116800   0.702E-02    0.221E-02
DAV:   8    -0.254256843438E+03    0.33883E-06   -0.52665E-05134712   0.309E-02    0.712E-03
DAV:   9    -0.254256843957E+03   -0.51900E-06   -0.17568E-05134832   0.185E-02    0.628E-03
DAV:  10    -0.254256843870E+03    0.86762E-07   -0.57501E-06116376   0.906E-03    0.509E-03
DAV:  11    -0.254256843522E+03    0.34806E-06   -0.28482E-06109144   0.580E-03    0.233E-03
DAV:  12    -0.254256843489E+03    0.33442E-07   -0.10774E-06 99480   0.397E-03    0.108E-03
DAV:  13    -0.254256843468E+03    0.20580E-07   -0.12662E-07 57032   0.224E-03
   6 F= -.25425684E+03 E0= -.25425684E+03  d E =-.824078E-01
       N       E                     dE             d eps       ncg     rms          rms(c)
DAV:   1    -0.254251745930E+03    0.50976E-02   -0.51638E+00 87744   0.144E+01    0.649E-01
DAV:   2    -0.254274791216E+03   -0.23045E-01   -0.34830E-01115072   0.300E+00    0.410E-01
DAV:   3    -0.254271196952E+03    0.35943E-02   -0.12391E-02128776   0.702E-01    0.202E-01
DAV:   4    -0.254270365455E+03    0.83150E-03   -0.60042E-03130320   0.366E-01    0.739E-02
DAV:   5    -0.254270310920E+03    0.54534E-04   -0.12442E-03125192   0.165E-01    0.546E-02
DAV:   6    -0.254270291701E+03    0.19220E-04   -0.49572E-04125664   0.790E-02    0.209E-02
DAV:   7    -0.254270289372E+03    0.23294E-05   -0.50274E-05116800   0.411E-02    0.129E-02
DAV:   8    -0.254270289752E+03   -0.38072E-06   -0.18651E-05135736   0.181E-02    0.489E-03
DAV:   9    -0.254270289729E+03    0.23560E-07   -0.75855E-06127272   0.117E-02    0.407E-03
DAV:  10    -0.254270289676E+03    0.52736E-07   -0.27163E-06112296   0.618E-03    0.312E-03
DAV:  11    -0.254270289560E+03    0.11593E-06   -0.11129E-06 99720   0.372E-03    0.157E-03
DAV:  12    -0.254270289511E+03    0.49458E-07   -0.23660E-07 68192   0.252E-03
   7 F= -.25427029E+03 E0= -.25427029E+03  d E =-.958539E-01
       N       E                     dE             d eps       ncg     rms          rms(c)
DAV:   1    -0.254220942380E+03    0.49347E-01   -0.17926E+01 99656   0.264E+01    0.871E-01
DAV:   2    -0.254324866105E+03   -0.10392E+00   -0.12415E+00101896   0.459E+00    0.512E-01
DAV:   3    -0.254322422517E+03    0.24436E-02   -0.47392E-02130296   0.113E+00    0.300E-01
DAV:   4    -0.254320861815E+03    0.15607E-02   -0.14852E-02134312   0.607E-01    0.116E-01
DAV:   5    -0.254320806563E+03    0.55252E-04   -0.30757E-03125576   0.246E-01    0.899E-02
DAV:   6    -0.254320747834E+03    0.58729E-04   -0.15428E-03125736   0.127E-01    0.375E-02
DAV:   7    -0.254320736323E+03    0.11511E-04   -0.16525E-04116904   0.721E-02    0.234E-02
DAV:   8    -0.254320732066E+03    0.42568E-05   -0.82935E-05124328   0.357E-02    0.730E-03
DAV:   9    -0.254320732596E+03   -0.52911E-06   -0.17714E-05119032   0.179E-02    0.590E-03
DAV:  10    -0.254320732074E+03    0.52118E-06   -0.31448E-06116904   0.760E-03    0.238E-03
DAV:  11    -0.254320732086E+03   -0.12029E-07   -0.76980E-07101584   0.360E-03
   8 F= -.25432073E+03 E0= -.25432073E+03  d E =-.504426E-01
       N       E                     dE             d eps       ncg     rms          rms(c)
DAV:   1    -0.254310839831E+03    0.98922E-02   -0.24975E+00 98600   0.988E+00    0.324E-01
DAV:   2    -0.254325266903E+03   -0.14427E-01   -0.17223E-01104248   0.170E+00    0.190E-01
DAV:   3    -0.254324886209E+03    0.38069E-03   -0.61229E-03129352   0.418E-01    0.111E-01
DAV:   4    -0.254324671608E+03    0.21460E-03   -0.21082E-03134824   0.226E-01    0.435E-02
DAV:   5    -0.254324661631E+03    0.99774E-05   -0.44366E-04124008   0.931E-02    0.347E-02
DAV:   6    -0.254324650525E+03    0.11106E-04   -0.21616E-04125656   0.471E-02    0.137E-02
DAV:   7    -0.254324648642E+03    0.18832E-05   -0.22396E-05116992   0.268E-02    0.844E-03
DAV:   8    -0.254324647235E+03    0.14066E-05   -0.86351E-06126024   0.121E-02    0.233E-03
DAV:   9    -0.254324647238E+03   -0.27285E-08   -0.24361E-06110568   0.604E-03    0.206E-03
DAV:  10    -0.254324647131E+03    0.10646E-06   -0.17249E-07 60936   0.262E-03    0.123E-03
DAV:  11    -0.254324647131E+03    0.54752E-09   -0.39366E-07 78672   0.254E-03
   9 F= -.25432465E+03 E0= -.25432465E+03  d E =-.543576E-01
       N       E                     dE             d eps       ncg     rms          rms(c)
DAV:   1    -0.254332946934E+03   -0.82998E-02   -0.10162E+01 99680   0.205E+01    0.130E+00
DAV:   2    -0.254356196408E+03   -0.23249E-01   -0.74987E-01110912   0.385E+00    0.660E-01
DAV:   3    -0.254348135083E+03    0.80613E-02   -0.54037E-02127784   0.100E+00    0.276E-01
DAV:   4    -0.254346834657E+03    0.13004E-02   -0.73881E-03130968   0.513E-01    0.104E-01
DAV:   5    -0.254346679086E+03    0.15557E-03   -0.10332E-03129520   0.165E-01    0.486E-02
DAV:   6    -0.254346677025E+03    0.20612E-05   -0.30902E-04134952   0.784E-02    0.208E-02
DAV:   7    -0.254346674045E+03    0.29797E-05   -0.50851E-05127288   0.363E-02    0.113E-02
DAV:   8    -0.254346676879E+03   -0.28335E-05   -0.23289E-05130016   0.182E-02    0.558E-03
DAV:   9    -0.254346677134E+03   -0.25542E-06   -0.27435E-06123408   0.101E-02    0.263E-03
DAV:  10    -0.254346677301E+03   -0.16620E-06   -0.18804E-06108512   0.476E-03    0.138E-03
DAV:  11    -0.254346677215E+03    0.85240E-07   -0.14498E-07 61144   0.251E-03
  10 F= -.25434668E+03 E0= -.25434668E+03  d E =-.220301E-01
       N       E                     dE             d eps       ncg     rms          rms(c)
DAV:   1    -0.254346726968E+03   -0.49667E-04   -0.10668E-01101096   0.209E+00    0.134E-01
DAV:   2    -0.254346964364E+03   -0.23740E-03   -0.78994E-03112696   0.393E-01    0.682E-02
DAV:   3    -0.254346881886E+03    0.82478E-04   -0.58455E-04127592   0.103E-01    0.294E-02
DAV:   4    -0.254346867907E+03    0.13978E-04   -0.81918E-05129376   0.567E-02    0.110E-02
DAV:   5    -0.254346867353E+03    0.55389E-06   -0.12503E-05129456   0.177E-02    0.514E-03
DAV:   6    -0.254346868040E+03   -0.68703E-06   -0.32209E-06128584   0.838E-03    0.215E-03
DAV:   7    -0.254346868161E+03   -0.12047E-06   -0.55260E-07 97816   0.395E-03    0.114E-03
DAV:   8    -0.254346868309E+03   -0.14827E-06   -0.14814E-07 58872   0.236E-03    0.459E-04
DAV:   9    -0.254346868355E+03   -0.45769E-07   -0.74266E-08 50032   0.217E-03
  11 F= -.25434687E+03 E0= -.25434687E+03  d E =-.222212E-01
       N       E                     dE             d eps       ncg     rms          rms(c)
DAV:   1    -0.254328994981E+03    0.17873E-01   -0.44408E+00 90352   0.143E+01    0.575E-01
DAV:   2    -0.254357930302E+03   -0.28935E-01   -0.38534E-01103648   0.281E+00    0.329E-01
DAV:   3    -0.254356517159E+03    0.14131E-02   -0.14900E-02132488   0.596E-01    0.165E-01
DAV:   4    -0.254356002859E+03    0.51430E-03   -0.31142E-03140528   0.299E-01    0.557E-02
DAV:   5    -0.254355964126E+03    0.38733E-04   -0.54129E-04134712   0.116E-01    0.358E-02
DAV:   6    -0.254355963532E+03    0.59489E-06   -0.29600E-04128088   0.572E-02    0.195E-02
DAV:   7    -0.254355958128E+03    0.54032E-05   -0.35401E-05128040   0.298E-02    0.122E-02
DAV:   8    -0.254355957307E+03    0.82098E-06   -0.29880E-05127720   0.173E-02    0.396E-03
DAV:   9    -0.254355957320E+03   -0.12351E-07   -0.35116E-06107232   0.837E-03    0.306E-03
DAV:  10    -0.254355957237E+03    0.82280E-07   -0.11326E-06100104   0.398E-03    0.102E-03
DAV:  11    -0.254355957257E+03   -0.19550E-07   -0.19565E-07 64976   0.224E-03
  12 F= -.25435596E+03 E0= -.25435596E+03  d E =-.908890E-02
       N       E                     dE             d eps       ncg     rms          rms(c)
DAV:   1    -0.254355424002E+03    0.53324E-03   -0.11782E-01 90240   0.233E+00    0.933E-02
DAV:   2    -0.254356194397E+03   -0.77039E-03   -0.10237E-02105712   0.455E-01    0.540E-02
DAV:   3    -0.254356151764E+03    0.42633E-04   -0.37200E-04131424   0.973E-02    0.268E-02
DAV:   4    -0.254356137289E+03    0.14475E-04   -0.82029E-05139472   0.486E-02    0.909E-03
DAV:   5    -0.254356135814E+03    0.14752E-05   -0.14215E-05136008   0.189E-02    0.576E-03
DAV:   6    -0.254356135548E+03    0.26564E-06   -0.75780E-06118128   0.920E-03    0.314E-03
DAV:   7    -0.254356135298E+03    0.25056E-06   -0.88132E-07102528   0.498E-03    0.196E-03
DAV:   8    -0.254356135164E+03    0.13403E-06   -0.89146E-07 97112   0.334E-03    0.750E-04
DAV:   9    -0.254356135153E+03    0.10397E-07   -0.78325E-08 52040   0.192E-03
  13 F= -.25435614E+03 E0= -.25435614E+03  d E =-.926680E-02
       N       E                     dE             d eps       ncg     rms          rms(c)
DAV:   1    -0.254341901467E+03    0.14234E-01   -0.29882E+00 94592   0.114E+01    0.275E-01
DAV:   2    -0.254361570712E+03   -0.19669E-01   -0.21842E-01105976   0.203E+00    0.162E-01
DAV:   3    -0.254361610742E+03   -0.40030E-04   -0.70249E-03130392   0.460E-01    0.103E-01
DAV:   4    -0.254361431543E+03    0.17920E-03   -0.18768E-03127784   0.207E-01    0.408E-02
DAV:   5    -0.254361436131E+03   -0.45883E-05   -0.47852E-04123624   0.948E-02    0.359E-02
DAV:   6    -0.254361426189E+03    0.99427E-05   -0.17127E-04129152   0.420E-02    0.145E-02
DAV:   7    -0.254361428370E+03   -0.21813E-05   -0.18899E-05123128   0.229E-02    0.786E-03
DAV:   8    -0.254361429071E+03   -0.70139E-06   -0.32345E-06133456   0.849E-03    0.211E-03
DAV:   9    -0.254361429183E+03   -0.11202E-06   -0.90467E-07112792   0.468E-03    0.901E-04
DAV:  10    -0.254361429198E+03   -0.14521E-07   -0.20437E-07 63696   0.236E-03
  14 F= -.25436143E+03 E0= -.25436143E+03  d E =-.529404E-02
       N       E                     dE             d eps       ncg     rms          rms(c)
DAV:   1    -0.254359885457E+03    0.15437E-02   -0.28441E-01 94760   0.352E+00    0.846E-02
DAV:   2    -0.254361756259E+03   -0.18708E-02   -0.20774E-02106312   0.623E-01    0.498E-02
DAV:   3    -0.254361759974E+03   -0.37147E-05   -0.66357E-04130384   0.141E-01    0.318E-02
DAV:   4    -0.254361743170E+03    0.16804E-04   -0.18190E-04127512   0.646E-02    0.126E-02
DAV:   5    -0.254361743641E+03   -0.47095E-06   -0.46402E-05123472   0.293E-02    0.112E-02
DAV:   6    -0.254361742705E+03    0.93568E-06   -0.16244E-05126872   0.129E-02    0.454E-03
DAV:   7    -0.254361742993E+03   -0.28760E-06   -0.18387E-06107960   0.709E-03    0.241E-03
DAV:   8    -0.254361743135E+03   -0.14228E-06   -0.20753E-07 64072   0.267E-03    0.684E-04
DAV:   9    -0.254361743174E+03   -0.38539E-07   -0.11305E-07 51152   0.246E-03
  15 F= -.25436174E+03 E0= -.25436174E+03  d E =-.560802E-02
       N       E                     dE             d eps       ncg     rms          rms(c)
DAV:   1    -0.254358229375E+03    0.35138E-02   -0.14680E+00 97384   0.749E+00    0.319E-01
DAV:   2    -0.254364798780E+03   -0.65694E-02   -0.96435E-02106968   0.132E+00    0.179E-01
DAV:   3    -0.254364229291E+03    0.56949E-03   -0.41379E-03130704   0.337E-01    0.851E-02
DAV:   4    -0.254364103315E+03    0.12598E-03   -0.93821E-04137472   0.160E-01    0.322E-02
DAV:   5    -0.254364095659E+03    0.76561E-05   -0.16385E-04130872   0.642E-02    0.194E-02
DAV:   6    -0.254364096746E+03   -0.10865E-05   -0.62251E-05130960   0.302E-02    0.966E-03
DAV:   7    -0.254364096348E+03    0.39716E-06   -0.71806E-06129280   0.145E-02    0.587E-03
DAV:   8    -0.254364096982E+03   -0.63314E-06   -0.55421E-06110664   0.822E-03    0.193E-03
DAV:   9    -0.254364097003E+03   -0.21888E-07   -0.85928E-07104352   0.467E-03
  16 F= -.25436410E+03 E0= -.25436410E+03  d E =-.235383E-02
       N       E                     dE             d eps       ncg     rms          rms(c)
DAV:   1    -0.254364096673E+03    0.30813E-06   -0.97098E-05102184   0.608E-02    0.259E-03
DAV:   2    -0.254364097092E+03   -0.41872E-06   -0.68417E-06113904   0.109E-02    0.155E-03
DAV:   3    -0.254364097091E+03    0.11078E-08   -0.19029E-07 68984   0.293E-03
  17 F= -.25436410E+03 E0= -.25436410E+03  d E =-.235392E-02
       N       E                     dE             d eps       ncg     rms          rms(c)
DAV:   1    -0.254362117786E+03    0.19793E-02   -0.49320E-01100032   0.465E+00    0.187E-01
DAV:   2    -0.254365029872E+03   -0.29121E-02   -0.39602E-02101296   0.888E-01    0.971E-02
DAV:   3    -0.254365013632E+03    0.16240E-04   -0.24228E-03136776   0.206E-01    0.551E-02
DAV:   4    -0.254364958257E+03    0.55376E-04   -0.35293E-04145224   0.101E-01    0.207E-02
DAV:   5    -0.254364955047E+03    0.32094E-05   -0.79657E-05122552   0.384E-02    0.131E-02
DAV:   6    -0.254364952688E+03    0.23595E-05   -0.24979E-05129144   0.191E-02    0.588E-03
DAV:   7    -0.254364952208E+03    0.47988E-06   -0.47878E-06114984   0.972E-03    0.358E-03
DAV:   8    -0.254364951741E+03    0.46736E-06   -0.78950E-07102816   0.418E-03    0.118E-03
DAV:   9    -0.254364951685E+03    0.55335E-07   -0.44399E-07 82600   0.305E-03
  18 F= -.25436495E+03 E0= -.25436495E+03  d E =-.854594E-03
       N       E                     dE             d eps       ncg     rms          rms(c)
DAV:   1    -0.254364949548E+03    0.21925E-05   -0.45686E-04102736   0.142E-01    0.575E-03
DAV:   2    -0.254364952242E+03   -0.26936E-05   -0.36827E-05104000   0.271E-02    0.303E-03
DAV:   3    -0.254364952418E+03   -0.17670E-06   -0.21520E-06126536   0.627E-03    0.164E-03
DAV:   4    -0.254364952441E+03   -0.22568E-07   -0.17371E-07 65272   0.331E-03
  19 F= -.25436495E+03 E0= -.25436495E+03  d E =-.855350E-03
       N       E                     dE             d eps       ncg     rms          rms(c)
DAV:   1    -0.254363905769E+03    0.10466E-02   -0.23524E-01103576   0.332E+00    0.120E-01
DAV:   2    -0.254365345768E+03   -0.14400E-02   -0.18653E-02 87400   0.556E-01    0.576E-02
DAV:   3    -0.254365388340E+03   -0.42572E-04   -0.12585E-03136712   0.144E-01    0.336E-02
DAV:   4    -0.254365370612E+03    0.17728E-04   -0.11574E-04140080   0.596E-02    0.131E-02
DAV:   5    -0.254365371930E+03   -0.13176E-05   -0.27042E-05126360   0.216E-02    0.746E-03
DAV:   6    -0.254365372256E+03   -0.32612E-06   -0.77575E-06127096   0.112E-02    0.367E-03
DAV:   7    -0.254365372768E+03   -0.51230E-06   -0.18060E-06107432   0.564E-03    0.251E-03
DAV:   8    -0.254365372954E+03   -0.18570E-06   -0.41191E-07 76656   0.304E-03    0.756E-04
DAV:   9    -0.254365373035E+03   -0.81203E-07   -0.16135E-07 53776   0.259E-03
  20 F= -.25436537E+03 E0= -.25436537E+03  d E =-.420594E-03
       N       E                     dE             d eps       ncg     rms          rms(c)
DAV:   1    -0.254365367061E+03    0.58929E-05   -0.11101E-03106224   0.228E-01    0.830E-03
DAV:   2    -0.254365373692E+03   -0.66311E-05   -0.88131E-05 91760   0.382E-02    0.393E-03
DAV:   3    -0.254365374188E+03   -0.49630E-06   -0.61598E-06136584   0.100E-02    0.235E-03
DAV:   4    -0.254365374122E+03    0.66342E-07   -0.31034E-07 75824   0.399E-03
  21 F= -.25436537E+03 E0= -.25436537E+03  d E =-.421681E-03
       N       E                     dE             d eps       ncg     rms          rms(c)
DAV:   1    -0.254365023248E+03    0.35094E-03   -0.14183E-01 91000   0.234E+00    0.889E-02
DAV:   2    -0.254365683110E+03   -0.65986E-03   -0.88327E-03113552   0.441E-01    0.530E-02
DAV:   3    -0.254365630395E+03    0.52715E-04   -0.32090E-04130416   0.105E-01    0.258E-02
DAV:   4    -0.254365615533E+03    0.14863E-04   -0.85811E-05133176   0.456E-02    0.798E-03
DAV:   5    -0.254365615368E+03    0.16465E-06   -0.15833E-05127648   0.199E-02    0.602E-03
DAV:   6    -0.254365615316E+03    0.52414E-07   -0.59648E-06122160   0.862E-03    0.317E-03
DAV:   7    -0.254365615190E+03    0.12587E-06   -0.59976E-07 96872   0.463E-03    0.199E-03
DAV:   8    -0.254365615189E+03    0.84583E-09   -0.88776E-07 96496   0.333E-03
  22 F= -.25436562E+03 E0= -.25436562E+03  d E =-.241067E-03
       N       E                     dE             d eps       ncg     rms          rms(c)
DAV:   1    -0.254365602760E+03    0.12429E-04   -0.40497E-03 92392   0.396E-01    0.150E-02
DAV:   2    -0.254365621661E+03   -0.18901E-04   -0.25383E-04114760   0.746E-02    0.893E-03
DAV:   3    -0.254365620134E+03    0.15269E-05   -0.91955E-06130304   0.178E-02    0.444E-03
DAV:   4    -0.254365619650E+03    0.48409E-06   -0.26768E-06129368   0.791E-03    0.142E-03
DAV:   5    -0.254365619625E+03    0.25100E-07   -0.39801E-07 74512   0.353E-03
  23 F= -.25436562E+03 E0= -.25436562E+03  d E =-.245503E-03
       N       E                     dE             d eps       ncg     rms          rms(c)
DAV:   1    -0.254365314461E+03    0.30519E-03   -0.72926E-02 90768   0.172E+00    0.539E-02
DAV:   2    -0.254365738121E+03   -0.42366E-03   -0.51399E-03105808   0.320E-01    0.309E-02
DAV:   3    -0.254365730259E+03    0.78619E-05   -0.18354E-04131912   0.714E-02    0.177E-02
DAV:   4    -0.254365723991E+03    0.62684E-05   -0.37935E-05140048   0.321E-02    0.641E-03
DAV:   5    -0.254365723381E+03    0.60965E-06   -0.74015E-06135736   0.134E-02    0.425E-03
DAV:   6    -0.254365723128E+03    0.25293E-06   -0.32813E-06111400   0.628E-03    0.222E-03
DAV:   7    -0.254365722981E+03    0.14719E-06   -0.32830E-07 73872   0.365E-03    0.149E-03
DAV:   8    -0.254365722859E+03    0.12147E-06   -0.44754E-07 81296   0.273E-03    0.335E-04
DAV:   9    -0.254365722872E+03   -0.13135E-07   -0.59805E-08 50192   0.189E-03
  24 F= -.25436572E+03 E0= -.25436572E+03  d E =-.103248E-03
       N       E                     dE             d eps       ncg     rms          rms(c)
DAV:   1    -0.254365722808E+03    0.51110E-07   -0.16788E-05 93504   0.260E-02    0.856E-04
DAV:   2    -0.254365722904E+03   -0.95846E-07   -0.11429E-06 93984   0.492E-03    0.462E-04
DAV:   3    -0.254365722929E+03   -0.24902E-07   -0.40293E-08 49640   0.129E-03
  25 F= -.25436572E+03 E0= -.25436572E+03  d E =-.103304E-03
       N       E                     dE             d eps       ncg     rms          rms(c)
DAV:   1    -0.254365657353E+03    0.65551E-04   -0.20159E-02104016   0.968E-01    0.518E-02
DAV:   2    -0.254365747120E+03   -0.89767E-04   -0.17148E-03 95480   0.177E-01    0.241E-02
DAV:   3    -0.254365745887E+03    0.12338E-05   -0.14644E-04132576   0.493E-02    0.112E-02
DAV:   4    -0.254365744317E+03    0.15699E-05   -0.11405E-05131208   0.207E-02    0.474E-03
DAV:   5    -0.254365744857E+03   -0.54071E-06   -0.32482E-06123008   0.750E-03    0.222E-03
DAV:   6    -0.254365745040E+03   -0.18279E-06   -0.32400E-07 75600   0.383E-03    0.121E-03
DAV:   7    -0.254365745335E+03   -0.29508E-06   -0.72778E-07 93664   0.293E-03    0.110E-03
DAV:   8    -0.254365745308E+03    0.26934E-07   -0.63210E-08 49656   0.198E-03
  26 F= -.25436575E+03 E0= -.25436575E+03  d E =-.223795E-04
       N       E                     dE             d eps       ncg     rms          rms(c)
DAV:   1    -0.254365743453E+03    0.18821E-05   -0.15450E-03104552   0.268E-01    0.143E-02
DAV:   2    -0.254365750684E+03   -0.72312E-05   -0.13185E-04 95464   0.489E-02    0.673E-03
DAV:   3    -0.254365749728E+03    0.95593E-06   -0.10876E-05132384   0.136E-02    0.308E-03
DAV:   4    -0.254365749451E+03    0.27740E-06   -0.97641E-07117192   0.589E-03    0.123E-03
DAV:   5    -0.254365749251E+03    0.19989E-06   -0.10235E-07 53704   0.201E-03    0.543E-04
DAV:   6    -0.254365749123E+03    0.12812E-06   -0.64739E-08 49616   0.180E-03    0.148E-04
DAV:   7    -0.254365749110E+03    0.13069E-07   -0.32699E-08 49232   0.142E-03
  27 F= -.25436575E+03 E0= -.25436575E+03  d E =-.261810E-04
       N       E                     dE             d eps       ncg     rms          rms(c)
DAV:   1    -0.254365737976E+03    0.11147E-04   -0.47122E-03100224   0.461E-01    0.192E-02
DAV:   2    -0.254365763163E+03   -0.25187E-04   -0.35152E-04 94616   0.778E-02    0.107E-02
DAV:   3    -0.254365761513E+03    0.16509E-05   -0.20734E-05136696   0.200E-02    0.522E-03
DAV:   4    -0.254365760714E+03    0.79819E-06   -0.29311E-06138000   0.924E-03    0.164E-03
DAV:   5    -0.254365760537E+03    0.17718E-06   -0.36878E-07 74552   0.363E-03    0.997E-04
DAV:   6    -0.254365760438E+03    0.99502E-07   -0.33123E-07 66888   0.270E-03
  28 F= -.25436576E+03 E0= -.25436576E+03  d E =-.113278E-04
       N       E                     dE             d eps       ncg     rms          rms(c)
DAV:   1    -0.254365760354E+03    0.18284E-06   -0.66706E-05102704   0.548E-02    0.235E-03
DAV:   2    -0.254365760717E+03   -0.36255E-06   -0.49633E-06 97080   0.927E-03    0.127E-03
DAV:   3    -0.254365760625E+03    0.92061E-07   -0.23727E-07 76688   0.247E-03
  29 F= -.25436576E+03 E0= -.25436576E+03  d E =-.115150E-04
       N       E                     dE             d eps       ncg     rms          rms(c)
DAV:   1    -0.254365750370E+03    0.10347E-04   -0.33472E-03 88792   0.347E-01    0.936E-03
DAV:   2    -0.254365768398E+03   -0.18028E-04   -0.20703E-04109568   0.698E-02    0.571E-03
DAV:   3    -0.254365768045E+03    0.35309E-06   -0.63868E-06130704   0.149E-02    0.360E-03
DAV:   4    -0.254365767722E+03    0.32334E-06   -0.26225E-06115792   0.707E-03    0.167E-03
DAV:   5    -0.254365767683E+03    0.39090E-07   -0.51453E-07 80320   0.366E-03
  30 F= -.25436577E+03 E0= -.25436577E+03  d E =-.705787E-05
       N       E                     dE             d eps       ncg     rms          rms(c)
DAV:   1    -0.254365767377E+03    0.34485E-06   -0.10516E-04 92760   0.612E-02    0.188E-03
DAV:   2    -0.254365768002E+03   -0.62455E-06   -0.71914E-06112976   0.124E-02    0.131E-03
DAV:   3    -0.254365767961E+03    0.40347E-07   -0.15096E-07 69112   0.294E-03
  31 F= -.25436577E+03 E0= -.25436577E+03  d E =-.733632E-05
       N       E                     dE             d eps       ncg     rms          rms(c)
DAV:   1    -0.254365759377E+03    0.86249E-05   -0.26851E-03102992   0.321E-01    0.147E-02
DAV:   2    -0.254365771035E+03   -0.11658E-04   -0.18248E-04 96936   0.566E-02    0.702E-03
DAV:   3    -0.254365771577E+03   -0.54188E-06   -0.14404E-05135920   0.152E-02    0.363E-03
DAV:   4    -0.254365771477E+03    0.99957E-07   -0.12021E-06120224   0.651E-03    0.150E-03
DAV:   5    -0.254365771648E+03   -0.17169E-06   -0.25957E-07 66712   0.260E-03    0.654E-04
DAV:   6    -0.254365771740E+03   -0.91610E-07   -0.76910E-08 49664   0.208E-03
  32 F= -.25436577E+03 E0= -.25436577E+03  d E =-.377882E-05
       N       E                     dE             d eps       ncg     rms          rms(c)
DAV:   1    -0.254365771771E+03   -0.12251E-06   -0.16419E-07 51904   0.309E-03    0.217E-04
DAV:   2    -0.254365771792E+03   -0.20636E-07   -0.64444E-08 49592   0.197E-03
  33 F= -.25436577E+03 E0= -.25436577E+03  d E =-.383036E-05
       N       E                     dE             d eps       ncg     rms          rms(c)
DAV:   1    -0.254365771801E+03   -0.30541E-07   -0.86261E-08 51280   0.221E-03    0.125E-04
DAV:   2    -0.254365771794E+03    0.74833E-08   -0.21573E-08 49160   0.104E-03
  34 F= -.25436577E+03 E0= -.25436577E+03  d E =-.383278E-05
       N       E                     dE             d eps       ncg     rms          rms(c)
DAV:   1    -0.254365763745E+03    0.80561E-05   -0.17084E-03104856   0.274E-01    0.975E-03
DAV:   2    -0.254365773935E+03   -0.10190E-04   -0.12851E-04 85968   0.456E-02    0.457E-03
DAV:   3    -0.254365773874E+03    0.61540E-07   -0.85763E-06139000   0.119E-02    0.265E-03
DAV:   4    -0.254365773658E+03    0.21567E-06   -0.53734E-07 92928   0.466E-03    0.107E-03
DAV:   5    -0.254365773539E+03    0.11886E-06   -0.27509E-07 68304   0.250E-03    0.515E-04
DAV:   6    -0.254365773486E+03    0.53431E-07   -0.53338E-08 49640   0.185E-03
  35 F= -.25436577E+03 E0= -.25436577E+03  d E =-.169200E-05
       N       E                     dE             d eps       ncg     rms          rms(c)
DAV:   1    -0.254365773357E+03    0.18238E-06   -0.10360E-05102760   0.214E-02    0.774E-04
DAV:   2    -0.254365773402E+03   -0.44622E-07   -0.75875E-07 80248   0.360E-03
  36 F= -.25436577E+03 E0= -.25436577E+03  d E =-.160768E-05
       N       E                     dE             d eps       ncg     rms          rms(c)
DAV:   1    -0.254365769253E+03    0.41039E-05   -0.91413E-04 92768   0.188E-01    0.480E-03
DAV:   2    -0.254365774470E+03   -0.52172E-05   -0.59107E-05104728   0.351E-02    0.273E-03
DAV:   3    -0.254365774484E+03   -0.13179E-07   -0.18052E-06118936   0.763E-03    0.175E-03
DAV:   4    -0.254365774458E+03    0.25937E-07   -0.60265E-07 95736   0.365E-03
  37 F= -.25436577E+03 E0= -.25436577E+03  d E =-.105594E-05
       N       E                     dE             d eps       ncg     rms          rms(c)
DAV:   1    -0.254365774279E+03    0.20492E-06   -0.33665E-05 95264   0.363E-02    0.961E-04
DAV:   2    -0.254365774487E+03   -0.20855E-06   -0.22539E-06101328   0.666E-03    0.597E-04
DAV:   3    -0.254365774479E+03    0.79672E-08   -0.47280E-08 53552   0.146E-03
  38 F= -.25436577E+03 E0= -.25436577E+03  d E =-.107754E-05
       N       E                     dE             d eps       ncg     rms          rms(c)
DAV:   1    -0.254365774475E+03    0.12342E-07   -0.27599E-06 91072   0.103E-02    0.261E-04
DAV:   2    -0.254365774486E+03   -0.11258E-07   -0.15045E-07 58520   0.204E-03
  39 F= -.25436577E+03 E0= -.25436577E+03  d E =-.108442E-05
       N       E                     dE             d eps       ncg     rms          rms(c)
DAV:   1    -0.254365773914E+03    0.56052E-06   -0.17828E-04100496   0.857E-02    0.303E-03
DAV:   2    -0.254365774900E+03   -0.98539E-06   -0.12598E-05100104   0.145E-02    0.178E-03
DAV:   3    -0.254365774926E+03   -0.26796E-07   -0.41523E-07 85632   0.363E-03
  40 F= -.25436577E+03 E0= -.25436577E+03  d E =-.440406E-06
