       N       E                     dE             d eps       ncg     rms          rms(c)
DAV:   1     0.108934540055E+04    0.10893E+04   -0.64579E+04 50304   0.120E+03
DAV:   2    -0.111424472214E+03   -0.12008E+04   -0.10935E+04 63728   0.348E+02
DAV:   3    -0.266288477534E+03   -0.15486E+03   -0.15208E+03 78704   0.137E+02
DAV:   4    -0.271805166671E+03   -0.55167E+01   -0.54872E+01 80728   0.372E+01
DAV:   5    -0.271942285101E+03   -0.13712E+00   -0.13698E+00 83592   0.561E+00    0.460E+01
DAV:   6    -0.222028464989E+03    0.49914E+02   -0.19770E+02 86344   0.555E+01    0.150E+01
DAV:   7    -0.225483674108E+03   -0.34552E+01   -0.25157E+01 78736   0.214E+01    0.900E+00
DAV:   8    -0.226407955278E+03   -0.92428E+00   -0.23137E+00 76696   0.747E+00    0.485E+00
DAV:   9    -0.226993986571E+03   -0.58603E+00   -0.17523E+00 74152   0.487E+00    0.120E+00
DAV:  10    -0.227005521314E+03   -0.11535E-01   -0.34210E-01 77968   0.183E+00    0.127E+00
DAV:  11    -0.226995203291E+03    0.10318E-01   -0.83499E-02 77560   0.960E-01    0.556E-01
DAV:  12    -0.226996281050E+03   -0.10778E-02   -0.25517E-02 78256   0.803E-01    0.233E-01
DAV:  13    -0.226998045952E+03   -0.17649E-02   -0.73058E-03 80312   0.309E-01    0.170E-01
DAV:  14    -0.226998595675E+03   -0.54972E-03   -0.13393E-03 74712   0.153E-01    0.130E-01
DAV:  15    -0.226998641261E+03   -0.45586E-04   -0.86943E-04 79464   0.107E-01    0.513E-02
DAV:  16    -0.226998662445E+03   -0.21183E-04   -0.13657E-04 78272   0.504E-02    0.255E-02
DAV:  17    -0.226998665164E+03   -0.27191E-05   -0.67974E-05 77360   0.326E-02    0.116E-02
DAV:  18    -0.226998662795E+03    0.23693E-05   -0.22637E-05 74096   0.186E-02    0.132E-02
DAV:  19    -0.226998660945E+03    0.18499E-05   -0.75066E-06 57520   0.107E-02    0.924E-03
DAV:  20    -0.226998661797E+03   -0.85263E-06   -0.58658E-06 56888   0.946E-03
   1 F= -.22699866E+03 E0= -.22699866E+03  d E =-.226999E+03  mag=     0.0004
       N       E                     dE             d eps       ncg     rms          rms(c)
DAV:   1    -0.211906056502E+03    0.15093E+02   -0.16823E+03 51928   0.160E+02    0.121E+01
DAV:   2    -0.230641917018E+03   -0.18736E+02   -0.22878E+02 65056   0.475E+01    0.829E+00
DAV:   3    -0.229431947540E+03    0.12100E+01   -0.80001E+00 81168   0.125E+01    0.393E+00
DAV:   4    -0.229043248941E+03    0.38870E+00   -0.16072E+00 81600   0.676E+00    0.155E+00
DAV:   5    -0.229012000454E+03    0.31248E-01   -0.33617E-01 79384   0.252E+00    0.780E-01
DAV:   6    -0.229008392580E+03    0.36079E-02   -0.49598E-02 79808   0.108E+00    0.370E-01
DAV:   7    -0.229009697610E+03   -0.13050E-02   -0.13113E-02 79816   0.566E-01    0.158E-01
DAV:   8    -0.229010223584E+03   -0.52597E-03   -0.26034E-03 72712   0.278E-01    0.799E-02
DAV:   9    -0.229010496474E+03   -0.27289E-03   -0.11677E-03 80024   0.152E-01    0.429E-02
DAV:  10    -0.229010547865E+03   -0.51392E-04   -0.15421E-04 70112   0.762E-02    0.229E-02
DAV:  11    -0.229010577203E+03   -0.29337E-04   -0.88291E-05 78408   0.443E-02    0.125E-02
DAV:  12    -0.229010588881E+03   -0.11678E-04   -0.24190E-05 67344   0.282E-02    0.701E-03
DAV:  13    -0.229010591814E+03   -0.29336E-05   -0.84615E-06 76296   0.148E-02    0.313E-03
DAV:  14    -0.229010592670E+03   -0.85621E-06   -0.20944E-06 46136   0.710E-03
   2 F= -.22901059E+03 E0= -.22901059E+03  d E =-.201193E+01  mag=     0.0000
       N       E                     dE             d eps       ncg     rms          rms(c)
DAV:   1    -0.228487165014E+03    0.52343E+00   -0.30484E+02 56184   0.715E+01    0.586E+00
DAV:   2    -0.230888356153E+03   -0.24012E+01   -0.34520E+01 64072   0.190E+01    0.342E+00
DAV:   3    -0.230675563408E+03    0.21279E+00   -0.14882E+00 80832   0.517E+00    0.155E+00
DAV:   4    -0.230626316414E+03    0.49247E-01   -0.22253E-01 80664   0.219E+00    0.597E-01
DAV:   5    -0.230621843363E+03    0.44731E-02   -0.41006E-02 79496   0.929E-01    0.271E-01
DAV:   6    -0.230622602210E+03   -0.75885E-03   -0.90707E-03 78512   0.477E-01    0.150E-01
DAV:   7    -0.230622723359E+03   -0.12115E-03   -0.14899E-03 77288   0.210E-01    0.764E-02
DAV:   8    -0.230622910393E+03   -0.18703E-03   -0.86454E-04 75104   0.136E-01    0.289E-02
DAV:   9    -0.230622927598E+03   -0.17205E-04   -0.97841E-05 79704   0.489E-02    0.164E-02
DAV:  10    -0.230622940815E+03   -0.13217E-04   -0.36310E-05 78400   0.270E-02    0.985E-03
DAV:  11    -0.230622944447E+03   -0.36322E-05   -0.93122E-06 63960   0.181E-02    0.374E-03
DAV:  12    -0.230622945058E+03   -0.61117E-06   -0.25108E-06 48256   0.785E-03
   3 F= -.23062295E+03 E0= -.23062295E+03  d E =-.362428E+01  mag=     0.0000
       N       E                     dE             d eps       ncg     rms          rms(c)
DAV:   1    -0.229228943294E+03    0.13940E+01   -0.32313E+02 51968   0.673E+01    0.345E+00
DAV:   2    -0.231358225321E+03   -0.21293E+01   -0.25196E+01 66960   0.181E+01    0.233E+00
DAV:   3    -0.231291350884E+03    0.66874E-01   -0.70481E-01 80984   0.399E+00    0.140E+00
DAV:   4    -0.231245028769E+03    0.46322E-01   -0.20898E-01 78568   0.193E+00    0.553E-01
DAV:   5    -0.231242720397E+03    0.23084E-02   -0.46379E-02 75456   0.971E-01    0.249E-01
DAV:   6    -0.231244043735E+03   -0.13233E-02   -0.86468E-03 78736   0.420E-01    0.148E-01
DAV:   7    -0.231244387482E+03   -0.34375E-03   -0.94858E-04 74976   0.165E-01    0.806E-02
DAV:   8    -0.231244589195E+03   -0.20171E-03   -0.58463E-04 71888   0.140E-01    0.312E-02
DAV:   9    -0.231244611253E+03   -0.22059E-04   -0.15543E-04 78840   0.544E-02    0.175E-02
DAV:  10    -0.231244616597E+03   -0.53438E-05   -0.33219E-05 74696   0.249E-02    0.110E-02
DAV:  11    -0.231244620207E+03   -0.36093E-05   -0.79017E-06 67008   0.152E-02    0.369E-03
DAV:  12    -0.231244621045E+03   -0.83841E-06   -0.18924E-06 48120   0.808E-03
   4 F= -.23124462E+03 E0= -.23124462E+03  d E =-.621676E+00  mag=     0.0000
       N       E                     dE             d eps       ncg     rms          rms(c)
DAV:   1    -0.231186282214E+03    0.58338E-01   -0.29386E+01 53792   0.202E+01    0.105E+00
DAV:   2    -0.231377009972E+03   -0.19073E+00   -0.23006E+00 64208   0.507E+00    0.664E-01
DAV:   3    -0.231371959417E+03    0.50506E-02   -0.68997E-02 80272   0.121E+00    0.388E-01
DAV:   4    -0.231367549730E+03    0.44097E-02   -0.16717E-02 80376   0.548E-01    0.131E-01
DAV:   5    -0.231367572077E+03   -0.22348E-04   -0.40609E-03 75312   0.253E-01    0.696E-02
DAV:   6    -0.231367600569E+03   -0.28492E-04   -0.57651E-04 80816   0.103E-01    0.389E-02
DAV:   7    -0.231367623902E+03   -0.23333E-04   -0.90891E-05 75680   0.468E-02    0.195E-02
DAV:   8    -0.231367629323E+03   -0.54209E-05   -0.27941E-05 64672   0.297E-02    0.606E-03
DAV:   9    -0.231367631719E+03   -0.23958E-05   -0.12540E-05 75248   0.133E-02    0.466E-03
DAV:  10    -0.231367631758E+03   -0.39400E-07   -0.98865E-07 39320   0.567E-03
   5 F= -.23136763E+03 E0= -.23136763E+03  d E =-.744687E+00  mag=     0.0000
       N       E                     dE             d eps       ncg     rms          rms(c)
DAV:   1    -0.231233134314E+03    0.13450E+00   -0.19385E+02 55552   0.496E+01    0.319E+00
DAV:   2    -0.232063630326E+03   -0.83050E+00   -0.11660E+01 65792   0.123E+01    0.185E+00
DAV:   3    -0.231992462577E+03    0.71168E-01   -0.36425E-01 78208   0.291E+00    0.985E-01
DAV:   4    -0.231968702142E+03    0.23760E-01   -0.10686E-01 77936   0.125E+00    0.304E-01
DAV:   5    -0.231968628123E+03    0.74019E-04   -0.18924E-02 76768   0.596E-01    0.170E-01
DAV:   6    -0.231968902243E+03   -0.27412E-03   -0.48813E-03 79696   0.261E-01    0.108E-01
DAV:   7    -0.231968863134E+03    0.39109E-04   -0.52010E-04 76664   0.122E-01    0.611E-02
DAV:   8    -0.231968926365E+03   -0.63231E-04   -0.38133E-04 74808   0.786E-02    0.246E-02
DAV:   9    -0.231968938803E+03   -0.12438E-04   -0.41886E-05 74496   0.379E-02    0.126E-02
DAV:  10    -0.231968941365E+03   -0.25625E-05   -0.19506E-05 76984   0.181E-02    0.579E-03
DAV:  11    -0.231968942416E+03   -0.10509E-05   -0.31993E-06 51608   0.959E-03    0.357E-03
DAV:  12    -0.231968942704E+03   -0.28788E-06   -0.10086E-06 41128   0.688E-03
   6 F= -.23196894E+03 E0= -.23196894E+03  d E =-.601311E+00  mag=    -0.0000
       N       E                     dE             d eps       ncg     rms          rms(c)
DAV:   1    -0.231963283536E+03    0.56589E-02   -0.42709E+00 55904   0.738E+00    0.457E-01
DAV:   2    -0.231980859905E+03   -0.17576E-01   -0.24675E-01 65152   0.180E+00    0.277E-01
DAV:   3    -0.231979279264E+03    0.15806E-02   -0.79768E-03 82456   0.420E-01    0.136E-01
DAV:   4    -0.231978858315E+03    0.42095E-03   -0.16234E-03 79672   0.183E-01    0.452E-02
DAV:   5    -0.231978850758E+03    0.75570E-05   -0.33535E-04 77056   0.857E-02    0.242E-02
DAV:   6    -0.231978856283E+03   -0.55245E-05   -0.73985E-05 78360   0.365E-02    0.139E-02
DAV:   7    -0.231978857364E+03   -0.10817E-05   -0.12537E-05 72672   0.175E-02    0.807E-03
DAV:   8    -0.231978859192E+03   -0.18279E-05   -0.58804E-06 64712   0.106E-02    0.295E-03
DAV:   9    -0.231978859644E+03   -0.45208E-06   -0.67903E-07 35720   0.557E-03
   7 F= -.23197886E+03 E0= -.23197886E+03  d E =-.611228E+00  mag=    -0.0000
       N       E                     dE             d eps       ncg     rms          rms(c)
DAV:   1    -0.231513290644E+03    0.46557E+00   -0.17396E+02 53760   0.497E+01    0.309E+00
DAV:   2    -0.232556569849E+03   -0.10433E+01   -0.13550E+01 61248   0.128E+01    0.192E+00
DAV:   3    -0.232502010830E+03    0.54559E-01   -0.48397E-01 79024   0.317E+00    0.110E+00
DAV:   4    -0.232472890870E+03    0.29120E-01   -0.11484E-01 78752   0.144E+00    0.376E-01
DAV:   5    -0.232471877625E+03    0.10132E-02   -0.25578E-02 76232   0.691E-01    0.219E-01
DAV:   6    -0.232471751312E+03    0.12631E-03   -0.65992E-03 79336   0.312E-01    0.116E-01
DAV:   7    -0.232471769399E+03   -0.18087E-04   -0.10294E-03 76848   0.144E-01    0.703E-02
DAV:   8    -0.232471833949E+03   -0.64550E-04   -0.39412E-04 78128   0.810E-02    0.218E-02
DAV:   9    -0.232471849905E+03   -0.15956E-04   -0.41849E-05 77040   0.318E-02    0.120E-02
DAV:  10    -0.232471852963E+03   -0.30578E-05   -0.10584E-05 76096   0.181E-02    0.537E-03
DAV:  11    -0.232471853861E+03   -0.89810E-06   -0.37996E-06 56104   0.901E-03
   8 F= -.23247185E+03 E0= -.23247185E+03  d E =-.492994E+00  mag=    -0.0000
       N       E                     dE             d eps       ncg     rms          rms(c)
DAV:   1    -0.232441792819E+03    0.30060E-01   -0.90511E+00 54632   0.114E+01    0.714E-01
DAV:   2    -0.232493088232E+03   -0.51295E-01   -0.68500E-01 63360   0.287E+00    0.426E-01
DAV:   3    -0.232490252220E+03    0.28360E-02   -0.22459E-02 80112   0.682E-01    0.230E-01
DAV:   4    -0.232488999962E+03    0.12523E-02   -0.39667E-03 80096   0.292E-01    0.778E-02
DAV:   5    -0.232488953471E+03    0.46491E-04   -0.98208E-04 75632   0.139E-01    0.393E-02
DAV:   6    -0.232488959287E+03   -0.58164E-05   -0.21021E-04 81528   0.606E-02    0.228E-02
DAV:   7    -0.232488959630E+03   -0.34299E-06   -0.31769E-05 77544   0.261E-02    0.140E-02
DAV:   8    -0.232488961730E+03   -0.20993E-05   -0.15521E-05 75776   0.165E-02    0.412E-03
DAV:   9    -0.232488962220E+03   -0.49052E-06   -0.11037E-06 36360   0.679E-03
   9 F= -.23248896E+03 E0= -.23248896E+03  d E =-.510103E+00  mag=     0.0000
       N       E                     dE             d eps       ncg     rms          rms(c)
DAV:   1    -0.232034065548E+03    0.45490E+00   -0.72377E+01 52616   0.347E+01    0.169E+00
DAV:   2    -0.232690784813E+03   -0.65672E+00   -0.74480E+00 56528   0.870E+00    0.944E-01
DAV:   3    -0.232692525535E+03   -0.17407E-02   -0.25239E-01 80400   0.207E+00    0.636E-01
DAV:   4    -0.232684036651E+03    0.84889E-02   -0.49185E-02 74704   0.902E-01    0.233E-01
DAV:   5    -0.232684006297E+03    0.30353E-04   -0.11976E-02 74096   0.445E-01    0.173E-01
DAV:   6    -0.232683736868E+03    0.26943E-03   -0.35798E-03 67992   0.214E-01    0.827E-02
DAV:   7    -0.232683810798E+03   -0.73930E-04   -0.85497E-04 78224   0.124E-01    0.383E-02
DAV:   8    -0.232683829783E+03   -0.18985E-04   -0.10418E-04 79440   0.590E-02    0.149E-02
DAV:   9    -0.232683838093E+03   -0.83100E-05   -0.34787E-05 76840   0.290E-02    0.695E-03
DAV:  10    -0.232683839419E+03   -0.13256E-05   -0.45154E-06 61872   0.123E-02    0.405E-03
DAV:  11    -0.232683839981E+03   -0.56216E-06   -0.21483E-06 41384   0.716E-03
  10 F= -.23268384E+03 E0= -.23268384E+03  d E =-.194878E+00  mag=     0.0000
       N       E                     dE             d eps       ncg     rms          rms(c)
DAV:   1    -0.232681333015E+03    0.25064E-02   -0.50342E-01 53544   0.290E+00    0.142E-01
DAV:   2    -0.232685630286E+03   -0.42973E-02   -0.49311E-02 56704   0.709E-01    0.797E-02
DAV:   3    -0.232685629738E+03    0.54841E-06   -0.16547E-03 80584   0.168E-01    0.516E-02
DAV:   4    -0.232685574871E+03    0.54866E-04   -0.29369E-04 76864   0.703E-02    0.177E-02
DAV:   5    -0.232685574867E+03    0.42401E-08   -0.67127E-05 75360   0.343E-02    0.123E-02
DAV:   6    -0.232685574308E+03    0.55882E-06   -0.22301E-05 66168   0.166E-02    0.653E-03
DAV:   7    -0.232685574687E+03   -0.37901E-06   -0.36140E-06 49392   0.893E-03
  11 F= -.23268557E+03 E0= -.23268557E+03  d E =-.196612E+00  mag=    -0.0000
       N       E                     dE             d eps       ncg     rms          rms(c)
DAV:   1    -0.232681908014E+03    0.36663E-02   -0.24414E+01 54704   0.196E+01    0.139E+00
DAV:   2    -0.232806886100E+03   -0.12498E+00   -0.19377E+00 68440   0.495E+00    0.724E-01
DAV:   3    -0.232798630068E+03    0.82560E-02   -0.74432E-02 81984   0.120E+00    0.318E-01
DAV:   4    -0.232796813030E+03    0.18170E-02   -0.74493E-03 77992   0.461E-01    0.141E-01
DAV:   5    -0.232796583390E+03    0.22964E-03   -0.19326E-03 79184   0.203E-01    0.594E-02
DAV:   6    -0.232796620391E+03   -0.37001E-04   -0.38046E-04 79888   0.918E-02    0.301E-02
DAV:   7    -0.232796627415E+03   -0.70242E-05   -0.66610E-05 78016   0.393E-02    0.159E-02
DAV:   8    -0.232796632352E+03   -0.49375E-05   -0.20816E-05 74248   0.227E-02    0.494E-03
DAV:   9    -0.232796633304E+03   -0.95156E-06   -0.42430E-06 56184   0.947E-03
  12 F= -.23279663E+03 E0= -.23279663E+03  d E =-.111059E+00  mag=     0.0000
       N       E                     dE             d eps       ncg     rms          rms(c)
DAV:   1    -0.232796453079E+03    0.17927E-03   -0.20252E-01 57616   0.179E+00    0.125E-01
DAV:   2    -0.232797493154E+03   -0.10401E-02   -0.16006E-02 67792   0.452E-01    0.664E-02
DAV:   3    -0.232797428159E+03    0.64996E-04   -0.63567E-04 80904   0.111E-01    0.291E-02
DAV:   4    -0.232797413898E+03    0.14261E-04   -0.62222E-05 78616   0.435E-02    0.128E-02
DAV:   5    -0.232797413505E+03    0.39262E-06   -0.16308E-05 78648   0.188E-02    0.545E-03
DAV:   6    -0.232797414525E+03   -0.10191E-05   -0.24984E-06 49408   0.853E-03    0.258E-03
DAV:   7    -0.232797415009E+03   -0.48421E-06   -0.72140E-07 35840   0.515E-03
  13 F= -.23279742E+03 E0= -.23279742E+03  d E =-.111840E+00  mag=    -0.0000
       N       E                     dE             d eps       ncg     rms          rms(c)
DAV:   1    -0.232706647280E+03    0.90767E-01   -0.30568E+01 53760   0.199E+01    0.101E+00
DAV:   2    -0.232838270421E+03   -0.13162E+00   -0.16718E+00 69520   0.501E+00    0.608E-01
DAV:   3    -0.232832455027E+03    0.58154E-02   -0.49841E-02 82320   0.114E+00    0.345E-01
DAV:   4    -0.232829853908E+03    0.26011E-02   -0.13731E-02 78488   0.509E-01    0.119E-01
DAV:   5    -0.232829911664E+03   -0.57756E-04   -0.29397E-03 75440   0.230E-01    0.691E-02
DAV:   6    -0.232829974943E+03   -0.63279E-04   -0.66562E-04 80968   0.112E-01    0.413E-02
DAV:   7    -0.232829983061E+03   -0.81177E-05   -0.63649E-05 75368   0.439E-02    0.224E-02
DAV:   8    -0.232829997719E+03   -0.14659E-04   -0.55982E-05 71936   0.378E-02    0.761E-03
DAV:   9    -0.232829999410E+03   -0.16905E-05   -0.69292E-06 73288   0.136E-02    0.398E-03
DAV:  10    -0.232830000207E+03   -0.79678E-06   -0.28262E-06 50312   0.730E-03
  14 F= -.23283000E+03 E0= -.23283000E+03  d E =-.325852E-01  mag=     0.0000
       N       E                     dE             d eps       ncg     rms          rms(c)
DAV:   1    -0.232827493668E+03    0.25057E-02   -0.35561E+00 53856   0.677E+00    0.335E-01
DAV:   2    -0.232842302270E+03   -0.14809E-01   -0.18728E-01 69120   0.169E+00    0.207E-01
DAV:   3    -0.232841584540E+03    0.71773E-03   -0.55449E-03 81952   0.377E-01    0.116E-01
DAV:   4    -0.232841277051E+03    0.30749E-03   -0.16522E-03 77920   0.176E-01    0.398E-02
DAV:   5    -0.232841282938E+03   -0.58864E-05   -0.33655E-04 75296   0.765E-02    0.232E-02
DAV:   6    -0.232841289673E+03   -0.67356E-05   -0.74066E-05 80992   0.366E-02    0.137E-02
DAV:   7    -0.232841290555E+03   -0.88131E-06   -0.72931E-06 68784   0.144E-02
  15 F= -.23284129E+03 E0= -.23284129E+03  d E =-.438755E-01  mag=     0.0000
       N       E                     dE             d eps       ncg     rms          rms(c)
DAV:   1    -0.232823705710E+03    0.17584E-01   -0.61122E+00 53776   0.969E+00    0.491E-01
DAV:   2    -0.232862078037E+03   -0.38372E-01   -0.46595E-01 68488   0.238E+00    0.278E-01
DAV:   3    -0.232861155163E+03    0.92287E-03   -0.11360E-02 81064   0.540E-01    0.159E-01
DAV:   4    -0.232860609600E+03    0.54556E-03   -0.26082E-03 79976   0.210E-01    0.481E-02
DAV:   5    -0.232860634145E+03   -0.24545E-04   -0.61216E-04 75336   0.105E-01    0.305E-02
DAV:   6    -0.232860641462E+03   -0.73169E-05   -0.93431E-05 82096   0.408E-02    0.180E-02
DAV:   7    -0.232860643358E+03   -0.18962E-05   -0.11227E-05 73584   0.185E-02    0.975E-03
DAV:   8    -0.232860644944E+03   -0.15862E-05   -0.70877E-06 63472   0.139E-02    0.232E-03
DAV:   9    -0.232860645147E+03   -0.20297E-06   -0.12302E-06 39664   0.540E-03
  16 F= -.23286065E+03 E0= -.23286065E+03  d E =-.193546E-01  mag=    -0.0000
       N       E                     dE             d eps       ncg     rms          rms(c)
DAV:   1    -0.232860637693E+03    0.72512E-05   -0.27106E-03 57344   0.204E-01    0.105E-02
DAV:   2    -0.232860654608E+03   -0.16915E-04   -0.20428E-04 67648   0.498E-02    0.575E-03
DAV:   3    -0.232860654235E+03    0.37292E-06   -0.45307E-06 62568   0.112E-02
  17 F= -.23286065E+03 E0= -.23286065E+03  d E =-.193637E-01  mag=     0.0000
       N       E                     dE             d eps       ncg     rms          rms(c)
DAV:   1    -0.232853018889E+03    0.76357E-02   -0.31353E+00 54176   0.706E+00    0.356E-01
DAV:   2    -0.232873781049E+03   -0.20762E-01   -0.24757E-01 64392   0.170E+00    0.173E-01
DAV:   3    -0.232873619186E+03    0.16186E-03   -0.67381E-03 79952   0.382E-01    0.993E-02
DAV:   4    -0.232873435858E+03    0.18333E-03   -0.10915E-03 76648   0.136E-01    0.339E-02
DAV:   5    -0.232873440028E+03   -0.41700E-05   -0.20894E-04 74552   0.625E-02    0.200E-02
DAV:   6    -0.232873445674E+03   -0.56453E-05   -0.59537E-05 78560   0.274E-02    0.118E-02
DAV:   7    -0.232873446167E+03   -0.49383E-06   -0.41701E-06 60992   0.119E-02
  18 F= -.23287345E+03 E0= -.23287345E+03  d E =-.127919E-01  mag=     0.0000
       N       E                     dE             d eps       ncg     rms          rms(c)
DAV:   1    -0.232869120542E+03    0.43251E-02   -0.95891E-01 53976   0.391E+00    0.197E-01
DAV:   2    -0.232875476918E+03   -0.63564E-02   -0.75726E-02 64432   0.938E-01    0.957E-02
DAV:   3    -0.232875429393E+03    0.47526E-04   -0.20590E-03 79832   0.211E-01    0.548E-02
DAV:   4    -0.232875375855E+03    0.53538E-04   -0.32796E-04 76848   0.747E-02    0.187E-02
DAV:   5    -0.232875377759E+03   -0.19037E-05   -0.63080E-05 74456   0.344E-02    0.110E-02
DAV:   6    -0.232875379732E+03   -0.19730E-05   -0.18066E-05 76024   0.152E-02    0.655E-03
DAV:   7    -0.232875379999E+03   -0.26734E-06   -0.10155E-06 37472   0.681E-03
  19 F= -.23287538E+03 E0= -.23287538E+03  d E =-.147258E-01  mag=     0.0000
       N       E                     dE             d eps       ncg     rms          rms(c)
DAV:   1    -0.232854680408E+03    0.20699E-01   -0.42498E+00 53752   0.834E+00    0.393E-01
DAV:   2    -0.232884663191E+03   -0.29983E-01   -0.34391E-01 63328   0.198E+00    0.201E-01
DAV:   3    -0.232884447724E+03    0.21547E-03   -0.90651E-03 80400   0.440E-01    0.112E-01
DAV:   4    -0.232884187468E+03    0.26026E-03   -0.12467E-03 77320   0.152E-01    0.331E-02
DAV:   5    -0.232884210039E+03   -0.22571E-04   -0.31470E-04 74424   0.705E-02    0.227E-02
DAV:   6    -0.232884212529E+03   -0.24896E-05   -0.47252E-05 82240   0.279E-02    0.135E-02
DAV:   7    -0.232884212219E+03    0.31014E-06   -0.45994E-06 64640   0.143E-02
  20 F= -.23288421E+03 E0= -.23288421E+03  d E =-.883222E-02  mag=    -0.0000
       N       E                     dE             d eps       ncg     rms          rms(c)
DAV:   1    -0.232883737805E+03    0.47472E-03   -0.90334E-02 55888   0.122E+00    0.576E-02
DAV:   2    -0.232884374750E+03   -0.63694E-03   -0.73254E-03 63352   0.288E-01    0.294E-02
DAV:   3    -0.232884370501E+03    0.42486E-05   -0.19625E-04 79776   0.643E-02    0.164E-02
DAV:   4    -0.232884364802E+03    0.56994E-05   -0.25933E-05 77472   0.221E-02    0.497E-03
DAV:   5    -0.232884365122E+03   -0.32066E-06   -0.62014E-06 58992   0.103E-02
  21 F= -.23288437E+03 E0= -.23288437E+03  d E =-.898512E-02  mag=     0.0000
       N       E                     dE             d eps       ncg     rms          rms(c)
DAV:   1    -0.232868949267E+03    0.15416E-01   -0.31965E+00 53808   0.716E+00    0.349E-01
DAV:   2    -0.232890858093E+03   -0.21909E-01   -0.25720E-01 63376   0.170E+00    0.169E-01
DAV:   3    -0.232890775053E+03    0.83039E-04   -0.67128E-03 81600   0.371E-01    0.100E-01
DAV:   4    -0.232890576157E+03    0.19890E-03   -0.83282E-04 76224   0.126E-01    0.309E-02
DAV:   5    -0.232890583509E+03   -0.73522E-05   -0.21075E-04 74000   0.606E-02    0.198E-02
DAV:   6    -0.232890586219E+03   -0.27092E-05   -0.53350E-05 77032   0.260E-02    0.121E-02
DAV:   7    -0.232890586121E+03    0.97481E-07   -0.56405E-06 62680   0.127E-02
  22 F= -.23289059E+03 E0= -.23289059E+03  d E =-.622100E-02  mag=    -0.0000
       N       E                     dE             d eps       ncg     rms          rms(c)
DAV:   1    -0.232889900810E+03    0.68541E-03   -0.12785E-01 55280   0.143E+00    0.698E-02
DAV:   2    -0.232890781467E+03   -0.88066E-03   -0.10342E-02 63280   0.341E-01    0.340E-02
DAV:   3    -0.232890778808E+03    0.26586E-05   -0.27572E-04 81296   0.745E-02    0.203E-02
DAV:   4    -0.232890771028E+03    0.77807E-05   -0.32923E-05 76192   0.252E-02    0.630E-03
DAV:   5    -0.232890771367E+03   -0.33885E-06   -0.84776E-06 66024   0.123E-02
  23 F= -.23289077E+03 E0= -.23289077E+03  d E =-.640624E-02  mag=    -0.0000
       N       E                     dE             d eps       ncg     rms          rms(c)
DAV:   1    -0.232884272428E+03    0.64986E-02   -0.19238E+00 53688   0.527E+00    0.318E-01
DAV:   2    -0.232895242336E+03   -0.10970E-01   -0.14107E-01 66520   0.130E+00    0.167E-01
DAV:   3    -0.232894827235E+03    0.41510E-03   -0.37734E-03 80976   0.283E-01    0.880E-02
DAV:   4    -0.232894657409E+03    0.16983E-03   -0.57876E-04 78688   0.115E-01    0.286E-02
DAV:   5    -0.232894658220E+03   -0.81131E-06   -0.14221E-04 76848   0.503E-02    0.158E-02
DAV:   6    -0.232894659112E+03   -0.89157E-06   -0.24442E-05 80312   0.223E-02    0.950E-03
DAV:   7    -0.232894659595E+03   -0.48303E-06   -0.38949E-06 54688   0.990E-03
  24 F= -.23289466E+03 E0= -.23289466E+03  d E =-.388823E-02  mag=     0.0000
       N       E                     dE             d eps       ncg     rms          rms(c)
DAV:   1    -0.232894330273E+03    0.32884E-03   -0.84193E-02 54776   0.110E+00    0.663E-02
DAV:   2    -0.232894813357E+03   -0.48308E-03   -0.62024E-03 66480   0.272E-01    0.351E-02
DAV:   3    -0.232894795773E+03    0.17584E-04   -0.16872E-04 80696   0.594E-02    0.184E-02
DAV:   4    -0.232894788538E+03    0.72344E-05   -0.24333E-05 79176   0.241E-02    0.614E-03
DAV:   5    -0.232894788778E+03   -0.24017E-06   -0.58320E-06 61064   0.106E-02
  25 F= -.23289479E+03 E0= -.23289479E+03  d E =-.401741E-02  mag=    -0.0000
       N       E                     dE             d eps       ncg     rms          rms(c)
DAV:   1    -0.232886772195E+03    0.80163E-02   -0.13720E+00 53792   0.479E+00    0.251E-01
DAV:   2    -0.232897077096E+03   -0.10305E-01   -0.12242E-01 62456   0.117E+00    0.119E-01
DAV:   3    -0.232897079491E+03   -0.23951E-05   -0.38040E-03 80944   0.264E-01    0.702E-02
DAV:   4    -0.232896990683E+03    0.88808E-04   -0.36401E-04 79600   0.899E-02    0.249E-02
DAV:   5    -0.232896991856E+03   -0.11722E-05   -0.96542E-05 76616   0.430E-02    0.131E-02
DAV:   6    -0.232896993561E+03   -0.17057E-05   -0.23897E-05 79072   0.210E-02    0.852E-03
DAV:   7    -0.232896993922E+03   -0.36086E-06   -0.31639E-06 48656   0.955E-03
  26 F= -.23289699E+03 E0= -.23289699E+03  d E =-.220514E-02  mag=    -0.0000
       N       E                     dE             d eps       ncg     rms          rms(c)
DAV:   1    -0.232896983188E+03    0.10374E-04   -0.18412E-03 57360   0.176E-01    0.926E-03
DAV:   2    -0.232896996699E+03   -0.13512E-04   -0.16199E-04 60904   0.420E-02    0.422E-03
DAV:   3    -0.232896996654E+03    0.45047E-07   -0.46192E-06 62728   0.958E-03
  27 F= -.23289700E+03 E0= -.23289700E+03  d E =-.220788E-02  mag=     0.0000
       N       E                     dE             d eps       ncg     rms          rms(c)
DAV:   1    -0.232894585967E+03    0.24107E-02   -0.53875E-01 54048   0.281E+00    0.142E-01
DAV:   2    -0.232897961284E+03   -0.33753E-02   -0.40507E-02 64384   0.693E-01    0.769E-02
DAV:   3    -0.232897910204E+03    0.51080E-04   -0.12001E-03 81072   0.161E-01    0.455E-02
DAV:   4    -0.232897867760E+03    0.42445E-04   -0.21072E-04 78064   0.592E-02    0.152E-02
DAV:   5    -0.232897868450E+03   -0.69031E-06   -0.41887E-05 74832   0.303E-02    0.857E-03
DAV:   6    -0.232897869483E+03   -0.10333E-05   -0.11500E-05 74104   0.132E-02    0.548E-03
DAV:   7    -0.232897869547E+03   -0.63862E-07   -0.77308E-07 35888   0.641E-03
  28 F= -.23289787E+03 E0= -.23289787E+03  d E =-.872893E-03  mag=    -0.0000
       N       E                     dE             d eps       ncg     rms          rms(c)
DAV:   1    -0.232897807783E+03    0.61700E-04   -0.17186E-02 55728   0.502E-01    0.253E-02
DAV:   2    -0.232897915164E+03   -0.10738E-03   -0.12831E-03 64224   0.123E-01    0.137E-02
DAV:   3    -0.232897913551E+03    0.16130E-05   -0.36929E-05 80552   0.283E-02    0.798E-03
DAV:   4    -0.232897912363E+03    0.11881E-05   -0.63691E-06 70192   0.103E-02    0.256E-03
DAV:   5    -0.232897912380E+03   -0.16482E-07   -0.11966E-06 40280   0.555E-03
  29 F= -.23289791E+03 E0= -.23289791E+03  d E =-.915726E-03  mag=     0.0000
       N       E                     dE             d eps       ncg     rms          rms(c)
DAV:   1    -0.232896819908E+03    0.10925E-02   -0.22362E-01 54152   0.191E+00    0.997E-02
DAV:   2    -0.232898423559E+03   -0.16037E-02   -0.19037E-02 64880   0.469E-01    0.541E-02
DAV:   3    -0.232898404573E+03    0.18986E-04   -0.52576E-04 80960   0.112E-01    0.316E-02
DAV:   4    -0.232898385489E+03    0.19084E-04   -0.10363E-04 80048   0.429E-02    0.996E-03
DAV:   5    -0.232898386674E+03   -0.11844E-05   -0.21603E-05 76688   0.211E-02    0.607E-03
DAV:   6    -0.232898387294E+03   -0.62025E-06   -0.45660E-06 62736   0.933E-03
  30 F= -.23289839E+03 E0= -.23289839E+03  d E =-.474914E-03  mag=    -0.0000
       N       E                     dE             d eps       ncg     rms          rms(c)
DAV:   1    -0.232898374664E+03    0.12010E-04   -0.33713E-03 56800   0.235E-01    0.118E-02
DAV:   2    -0.232898398308E+03   -0.23645E-04   -0.28303E-04 64104   0.570E-02    0.660E-03
DAV:   3    -0.232898397923E+03    0.38545E-06   -0.75620E-06 68248   0.135E-02
  31 F= -.23289840E+03 E0= -.23289840E+03  d E =-.485543E-03  mag=     0.0000
       N       E                     dE             d eps       ncg     rms          rms(c)
DAV:   1    -0.232897789391E+03    0.60892E-03   -0.16683E-01 54776   0.161E+00    0.845E-02
DAV:   2    -0.232898862730E+03   -0.10733E-02   -0.12831E-02 65232   0.388E-01    0.464E-02
DAV:   3    -0.232898840881E+03    0.21849E-04   -0.37215E-04 82432   0.904E-02    0.269E-02
DAV:   4    -0.232898826303E+03    0.14578E-04   -0.67250E-05 78400   0.333E-02    0.846E-03
DAV:   5    -0.232898826353E+03   -0.50733E-07   -0.10893E-05 69232   0.157E-02    0.458E-03
DAV:   6    -0.232898826684E+03   -0.33038E-06   -0.31114E-06 47224   0.671E-03
  32 F= -.23289883E+03 E0= -.23289883E+03  d E =-.428761E-03  mag=    -0.0000
       N       E                     dE             d eps       ncg     rms          rms(c)
DAV:   1    -0.232898824187E+03    0.21665E-05   -0.56612E-04 58160   0.938E-02    0.552E-03
DAV:   2    -0.232898827922E+03   -0.37347E-05   -0.44493E-05 64576   0.227E-02    0.283E-03
DAV:   3    -0.232898827847E+03    0.74896E-07   -0.10321E-06 54080   0.550E-03
  33 F= -.23289883E+03 E0= -.23289883E+03  d E =-.429924E-03  mag=    -0.0000
       N       E                     dE             d eps       ncg     rms          rms(c)
DAV:   1    -0.232898578468E+03    0.24945E-03   -0.11470E-01 54160   0.124E+00    0.824E-02
DAV:   2    -0.232899134815E+03   -0.55635E-03   -0.75229E-03 63600   0.305E-01    0.458E-02
DAV:   3    -0.232899096691E+03    0.38124E-04   -0.24027E-04 81136   0.724E-02    0.228E-02
DAV:   4    -0.232899085256E+03    0.11435E-04   -0.51757E-05 75888   0.274E-02    0.659E-03
DAV:   5    -0.232899085306E+03   -0.49666E-07   -0.83677E-06 65504   0.131E-02
  34 F= -.23289909E+03 E0= -.23289909E+03  d E =-.257459E-03  mag=    -0.0000
       N       E                     dE             d eps       ncg     rms          rms(c)
DAV:   1    -0.232899085527E+03   -0.27121E-06   -0.35981E-04 57632   0.696E-02    0.470E-03
DAV:   2    -0.232899087145E+03   -0.16175E-05   -0.23009E-05 62672   0.171E-02    0.280E-03
DAV:   3    -0.232899086991E+03    0.15333E-06   -0.70044E-07 42552   0.419E-03
  35 F= -.23289909E+03 E0= -.23289909E+03  d E =-.259145E-03  mag=     0.0000
       N       E                     dE             d eps       ncg     rms          rms(c)
DAV:   1    -0.232899085682E+03    0.14625E-05   -0.61057E-02 53896   0.821E-01    0.435E-02
DAV:   2    -0.232899261633E+03   -0.17595E-03   -0.22917E-03 70576   0.201E-01    0.261E-02
DAV:   3    -0.232899247763E+03    0.13870E-04   -0.72214E-05 83328   0.445E-02    0.139E-02
DAV:   4    -0.232899242511E+03    0.52522E-05   -0.18467E-05 77056   0.182E-02    0.446E-03
DAV:   5    -0.232899242140E+03    0.37145E-06   -0.32991E-06 43392   0.906E-03
  36 F= -.23289924E+03 E0= -.23289924E+03  d E =-.155148E-03  mag=    -0.0000
       N       E                     dE             d eps       ncg     rms          rms(c)
DAV:   1    -0.232899241082E+03    0.14289E-05   -0.20333E-03 56496   0.150E-01    0.844E-03
DAV:   2    -0.232899247272E+03   -0.61899E-05   -0.79487E-05 70976   0.370E-02    0.478E-03
DAV:   3    -0.232899246651E+03    0.62060E-06   -0.17464E-06 51872   0.840E-03
  37 F= -.23289925E+03 E0= -.23289925E+03  d E =-.159660E-03  mag=     0.0000
       N       E                     dE             d eps       ncg     rms          rms(c)
DAV:   1    -0.232899217957E+03    0.29315E-04   -0.19886E-02 54064   0.527E-01    0.300E-02
DAV:   2    -0.232899316624E+03   -0.98667E-04   -0.12347E-03 67904   0.129E-01    0.171E-02
DAV:   3    -0.232899313078E+03    0.35463E-05   -0.36261E-05 84144   0.301E-02    0.879E-03
DAV:   4    -0.232899311884E+03    0.11931E-05   -0.59065E-06 67552   0.107E-02    0.284E-03
DAV:   5    -0.232899312113E+03   -0.22827E-06   -0.11532E-06 39696   0.568E-03
  38 F= -.23289931E+03 E0= -.23289931E+03  d E =-.654613E-04  mag=     0.0000
