       N       E                     dE             d eps       ncg     rms          rms(c)
DAV:   1     0.880102121643E+03    0.88010E+03   -0.70110E+04 44192   0.137E+03
DAV:   2    -0.209076266690E+03   -0.10892E+04   -0.10453E+04 54224   0.325E+02
DAV:   3    -0.287930083071E+03   -0.78854E+02   -0.78209E+02 49392   0.905E+01
DAV:   4    -0.289547239467E+03   -0.16172E+01   -0.16080E+01 52768   0.138E+01
DAV:   5    -0.289586985909E+03   -0.39746E-01   -0.39694E-01 50616   0.211E+00    0.377E+01
DAV:   6    -0.234800080817E+03    0.54787E+02   -0.23876E+02 51168   0.478E+01    0.110E+01
DAV:   7    -0.235207496895E+03   -0.40742E+00   -0.20058E+01 51992   0.144E+01    0.694E+00
DAV:   8    -0.234667449891E+03    0.54005E+00   -0.20815E+00 49256   0.491E+00    0.303E+00
DAV:   9    -0.234578964788E+03    0.88485E-01   -0.58690E-01 51856   0.261E+00    0.971E-01
DAV:  10    -0.234565125608E+03    0.13839E-01   -0.15252E-01 50768   0.122E+00    0.570E-01
DAV:  11    -0.234563008205E+03    0.21174E-02   -0.53104E-02 49088   0.661E-01    0.255E-01
DAV:  12    -0.234562757100E+03    0.25110E-03   -0.70417E-03 51424   0.305E-01    0.104E-01
DAV:  13    -0.234563057701E+03   -0.30060E-03   -0.27345E-03 51944   0.186E-01    0.691E-02
DAV:  14    -0.234563067999E+03   -0.10298E-04   -0.67509E-04 50392   0.930E-02    0.237E-02
DAV:  15    -0.234563087386E+03   -0.19386E-04   -0.17118E-04 51384   0.443E-02    0.173E-02
DAV:  16    -0.234563083615E+03    0.37704E-05   -0.28783E-05 53240   0.242E-02    0.760E-03
DAV:  17    -0.234563084328E+03   -0.71260E-06   -0.14772E-05 49888   0.120E-02    0.360E-03
DAV:  18    -0.234563084244E+03    0.84327E-07   -0.14867E-06 28464   0.531E-03
   1 F= -.23456308E+03 E0= -.23456308E+03  d E =-.234563E+03  mag=     0.0000
       N       E                     dE             d eps       ncg     rms          rms(c)
DAV:   1    -0.214353986826E+03    0.20209E+02   -0.27150E+03 44800   0.192E+02    0.122E+01
DAV:   2    -0.239154646671E+03   -0.24801E+02   -0.28413E+02 47136   0.466E+01    0.102E+01
DAV:   3    -0.237274426723E+03    0.18802E+01   -0.63236E+00 51944   0.910E+00    0.653E+00
DAV:   4    -0.235905878640E+03    0.13685E+01   -0.39495E+00 50288   0.777E+00    0.176E+00
DAV:   5    -0.235912249493E+03   -0.63709E-02   -0.87404E-01 49880   0.345E+00    0.125E+00
DAV:   6    -0.235889612853E+03    0.22637E-01   -0.16889E-01 50568   0.141E+00    0.544E-01
DAV:   7    -0.235886194217E+03    0.34186E-02   -0.18355E-02 56936   0.627E-01    0.310E-01
DAV:   8    -0.235885241322E+03    0.95289E-03   -0.88723E-03 50960   0.337E-01    0.111E-01
DAV:   9    -0.235885183672E+03    0.57651E-04   -0.17781E-03 56144   0.168E-01    0.483E-02
DAV:  10    -0.235885208882E+03   -0.25211E-04   -0.32233E-04 51848   0.716E-02    0.267E-02
DAV:  11    -0.235885211070E+03   -0.21875E-05   -0.72977E-05 51832   0.306E-02    0.119E-02
DAV:  12    -0.235885211350E+03   -0.27961E-06   -0.10886E-05 52856   0.151E-02    0.533E-03
DAV:  13    -0.235885211630E+03   -0.28009E-06   -0.54724E-06 45424   0.846E-03
   2 F= -.23588521E+03 E0= -.23588521E+03  d E =-.132213E+01  mag=    -0.0000
       N       E                     dE             d eps       ncg     rms          rms(c)
DAV:   1    -0.234959202377E+03    0.92601E+00   -0.65449E+02 43008   0.970E+01    0.733E+00
DAV:   2    -0.239450889805E+03   -0.44917E+01   -0.59364E+01 44536   0.225E+01    0.472E+00
DAV:   3    -0.238957221681E+03    0.49367E+00   -0.12898E+00 51456   0.477E+00    0.246E+00
DAV:   4    -0.238810333629E+03    0.14689E+00   -0.71659E-01 50464   0.298E+00    0.775E-01
DAV:   5    -0.238801973557E+03    0.83601E-02   -0.10845E-01 54400   0.132E+00    0.466E-01
DAV:   6    -0.238801859066E+03    0.11449E-03   -0.39071E-02 50304   0.625E-01    0.280E-01
DAV:   7    -0.238800787918E+03    0.10711E-02   -0.30888E-03 55016   0.254E-01    0.150E-01
DAV:   8    -0.238800786737E+03    0.11812E-05   -0.35879E-03 52400   0.215E-01    0.826E-02
DAV:   9    -0.238800694432E+03    0.92305E-04   -0.49587E-04 52592   0.953E-02    0.486E-02
DAV:  10    -0.238800684383E+03    0.10049E-04   -0.30850E-04 50208   0.538E-02    0.171E-02
DAV:  11    -0.238800685881E+03   -0.14978E-05   -0.29415E-05 52128   0.200E-02    0.716E-03
DAV:  12    -0.238800686397E+03   -0.51645E-06   -0.37590E-06 45024   0.908E-03
   3 F= -.23880069E+03 E0= -.23880069E+03  d E =-.423760E+01  mag=     0.0000
       N       E                     dE             d eps       ncg     rms          rms(c)
DAV:   1    -0.238296856632E+03    0.50383E+00   -0.50009E+02 43008   0.818E+01    0.379E+00
DAV:   2    -0.239786740464E+03   -0.14899E+01   -0.21907E+01 47936   0.158E+01    0.268E+00
DAV:   3    -0.239625609256E+03    0.16113E+00   -0.61560E-01 51504   0.316E+00    0.156E+00
DAV:   4    -0.239558624770E+03    0.66984E-01   -0.34257E-01 48688   0.200E+00    0.551E-01
DAV:   5    -0.239555071710E+03    0.35531E-02   -0.59366E-02 53312   0.983E-01    0.335E-01
DAV:   6    -0.239555128006E+03   -0.56296E-04   -0.24383E-02 48960   0.520E-01    0.202E-01
DAV:   7    -0.239554667175E+03    0.46083E-03   -0.26999E-03 50768   0.206E-01    0.105E-01
DAV:   8    -0.239554556423E+03    0.11075E-03   -0.13511E-03 53648   0.133E-01    0.492E-02
DAV:   9    -0.239554547570E+03    0.88535E-05   -0.24039E-04 50528   0.638E-02    0.347E-02
DAV:  10    -0.239554533919E+03    0.13651E-04   -0.12187E-04 51264   0.380E-02    0.123E-02
DAV:  11    -0.239554536000E+03   -0.20815E-05   -0.30914E-05 48320   0.182E-02    0.674E-03
DAV:  12    -0.239554536477E+03   -0.47632E-06   -0.19284E-06 27464   0.643E-03
   4 F= -.23955454E+03 E0= -.23955454E+03  d E =-.753850E+00  mag=     0.0000
       N       E                     dE             d eps       ncg     rms          rms(c)
DAV:   1    -0.239702099125E+03   -0.14756E+00   -0.59684E+01 43008   0.281E+01    0.125E+00
DAV:   2    -0.239854168772E+03   -0.15207E+00   -0.23379E+00 47728   0.525E+00    0.939E-01
DAV:   3    -0.239834221966E+03    0.19947E-01   -0.71906E-02 51872   0.111E+00    0.558E-01
DAV:   4    -0.239825475672E+03    0.87463E-02   -0.50129E-02 49648   0.756E-01    0.193E-01
DAV:   5    -0.239824971531E+03    0.50414E-03   -0.79944E-03 52208   0.359E-01    0.125E-01
DAV:   6    -0.239824928372E+03    0.43159E-04   -0.36389E-03 50048   0.201E-01    0.710E-02
DAV:   7    -0.239824869254E+03    0.59118E-04   -0.42221E-04 50864   0.812E-02    0.324E-02
DAV:   8    -0.239824858619E+03    0.10634E-04   -0.17519E-04 51360   0.484E-02    0.165E-02
DAV:   9    -0.239824855234E+03    0.33857E-05   -0.30540E-05 51568   0.221E-02    0.840E-03
DAV:  10    -0.239824855329E+03   -0.94900E-07   -0.12317E-05 46640   0.116E-02    0.381E-03
DAV:  11    -0.239824855582E+03   -0.25328E-06   -0.15956E-06 28992   0.474E-03
   5 F= -.23982486E+03 E0= -.23982486E+03  d E =-.102417E+01  mag=    -0.0000
       N       E                     dE             d eps       ncg     rms          rms(c)
DAV:   1    -0.240064117468E+03   -0.23926E+00   -0.21140E+02 43008   0.514E+01    0.274E+00
DAV:   2    -0.240508478996E+03   -0.44436E+00   -0.72335E+00 46624   0.881E+00    0.177E+00
DAV:   3    -0.240428213696E+03    0.80265E-01   -0.20327E-01 51888   0.190E+00    0.998E-01
DAV:   4    -0.240402691425E+03    0.25522E-01   -0.16032E-01 48560   0.141E+00    0.337E-01
DAV:   5    -0.240402133048E+03    0.55838E-03   -0.27814E-02 50880   0.631E-01    0.223E-01
DAV:   6    -0.240402139956E+03   -0.69082E-05   -0.10198E-02 48432   0.320E-01    0.129E-01
DAV:   7    -0.240401959977E+03    0.17998E-03   -0.11186E-03 53760   0.136E-01    0.625E-02
DAV:   8    -0.240401978172E+03   -0.18194E-04   -0.59495E-04 49712   0.786E-02    0.310E-02
DAV:   9    -0.240401969962E+03    0.82098E-05   -0.41556E-05 58336   0.285E-02    0.195E-02
DAV:  10    -0.240401965181E+03    0.47807E-05   -0.42952E-05 46592   0.218E-02    0.527E-03
DAV:  11    -0.240401965595E+03   -0.41420E-06   -0.67542E-06 43504   0.920E-03
   6 F= -.24040197E+03 E0= -.24040197E+03  d E =-.577110E+00  mag=     0.0000
       N       E                     dE             d eps       ncg     rms          rms(c)
DAV:   1    -0.240402210483E+03   -0.24530E-03   -0.23186E-01 43840   0.171E+00    0.861E-02
DAV:   2    -0.240402658072E+03   -0.44759E-03   -0.73150E-03 46688   0.282E-01    0.587E-02
DAV:   3    -0.240402570531E+03    0.87542E-04   -0.22895E-04 51936   0.631E-02    0.310E-02
DAV:   4    -0.240402548056E+03    0.22475E-04   -0.13007E-04 50032   0.412E-02    0.959E-03
DAV:   5    -0.240402548187E+03   -0.13086E-06   -0.20551E-05 51696   0.179E-02    0.607E-03
DAV:   6    -0.240402548556E+03   -0.36930E-06   -0.72622E-06 44832   0.875E-03
   7 F= -.24040255E+03 E0= -.24040255E+03  d E =-.577693E+00  mag=    -0.0000
       N       E                     dE             d eps       ncg     rms          rms(c)
DAV:   1    -0.240539482014E+03   -0.13693E+00   -0.14826E+02 43008   0.435E+01    0.223E+00
DAV:   2    -0.240973890401E+03   -0.43441E+00   -0.61532E+00 46608   0.815E+00    0.152E+00
DAV:   3    -0.240923928603E+03    0.49962E-01   -0.15571E-01 51952   0.157E+00    0.900E-01
DAV:   4    -0.240904485824E+03    0.19443E-01   -0.12109E-01 48384   0.117E+00    0.312E-01
DAV:   5    -0.240903587287E+03    0.89854E-03   -0.19825E-02 49728   0.531E-01    0.209E-01
DAV:   6    -0.240903482254E+03    0.10503E-03   -0.84802E-03 48448   0.279E-01    0.107E-01
DAV:   7    -0.240903369269E+03    0.11298E-03   -0.78161E-04 48592   0.115E-01    0.572E-02
DAV:   8    -0.240903387631E+03   -0.18361E-04   -0.41765E-04 48464   0.645E-02    0.220E-02
DAV:   9    -0.240903382846E+03    0.47844E-05   -0.23098E-05 51056   0.209E-02    0.131E-02
DAV:  10    -0.240903381140E+03    0.17066E-05   -0.19951E-05 47696   0.150E-02    0.431E-03
DAV:  11    -0.240903381385E+03   -0.24588E-06   -0.42206E-06 41664   0.690E-03
   8 F= -.24090338E+03 E0= -.24090338E+03  d E =-.500833E+00  mag=     0.0000
       N       E                     dE             d eps       ncg     rms          rms(c)
DAV:   1    -0.240895373688E+03    0.80075E-02   -0.25331E+01 43008   0.180E+01    0.919E-01
DAV:   2    -0.240960876036E+03   -0.65502E-01   -0.96499E-01 46608   0.325E+00    0.607E-01
DAV:   3    -0.240952372953E+03    0.85031E-02   -0.24522E-02 51952   0.618E-01    0.346E-01
DAV:   4    -0.240949434587E+03    0.29384E-02   -0.16382E-02 48400   0.434E-01    0.109E-01
DAV:   5    -0.240949345971E+03    0.88616E-04   -0.25857E-03 50752   0.195E-01    0.723E-02
DAV:   6    -0.240949348252E+03   -0.22805E-05   -0.10021E-03 48816   0.978E-02    0.408E-02
DAV:   7    -0.240949331689E+03    0.16562E-04   -0.94917E-05 48720   0.403E-02    0.214E-02
DAV:   8    -0.240949333641E+03   -0.19519E-05   -0.59280E-05 48384   0.242E-02    0.807E-03
DAV:   9    -0.240949332863E+03    0.77801E-06   -0.32563E-06 40832   0.815E-03
   9 F= -.24094933E+03 E0= -.24094933E+03  d E =-.546784E+00  mag=    -0.0000
       N       E                     dE             d eps       ncg     rms          rms(c)
DAV:   1    -0.241009026818E+03   -0.59693E-01   -0.50148E+01 43008   0.258E+01    0.143E+00
DAV:   2    -0.241181869039E+03   -0.17284E+00   -0.24881E+00 46544   0.523E+00    0.914E-01
DAV:   3    -0.241164582645E+03    0.17286E-01   -0.74080E-02 51952   0.107E+00    0.488E-01
DAV:   4    -0.241159196938E+03    0.53857E-02   -0.31378E-02 50528   0.612E-01    0.165E-01
DAV:   5    -0.241158865197E+03    0.33174E-03   -0.43025E-03 51792   0.278E-01    0.100E-01
DAV:   6    -0.241158913171E+03   -0.47974E-04   -0.24925E-03 48800   0.167E-01    0.652E-02
DAV:   7    -0.241158867094E+03    0.46077E-04   -0.32665E-04 52112   0.723E-02    0.347E-02
DAV:   8    -0.241158865539E+03    0.15548E-05   -0.19571E-04 48800   0.419E-02    0.142E-02
DAV:   9    -0.241158862694E+03    0.28446E-05   -0.11973E-05 54944   0.155E-02    0.845E-03
DAV:  10    -0.241158862164E+03    0.53029E-06   -0.10537E-05 47648   0.111E-02    0.297E-03
DAV:  11    -0.241158862321E+03   -0.15664E-06   -0.17346E-06 30480   0.480E-03
  10 F= -.24115886E+03 E0= -.24115886E+03  d E =-.209529E+00  mag=    -0.0000
       N       E                     dE             d eps       ncg     rms          rms(c)
DAV:   1    -0.241159172450E+03   -0.31029E-03   -0.32266E-01 43648   0.208E+00    0.114E-01
DAV:   2    -0.241160219860E+03   -0.10474E-02   -0.15439E-02 46560   0.418E-01    0.730E-02
DAV:   3    -0.241160105735E+03    0.11412E-03   -0.46422E-04 51920   0.855E-02    0.384E-02
DAV:   4    -0.241160072253E+03    0.33482E-04   -0.18233E-04 51104   0.470E-02    0.129E-02
DAV:   5    -0.241160069518E+03    0.27347E-05   -0.24785E-05 51968   0.214E-02    0.749E-03
DAV:   6    -0.241160069572E+03   -0.53135E-07   -0.13872E-05 47152   0.127E-02    0.502E-03
DAV:   7    -0.241160069171E+03    0.40086E-06   -0.15033E-06 28832   0.536E-03
  11 F= -.24116007E+03 E0= -.24116007E+03  d E =-.210736E+00  mag=     0.0000
       N       E                     dE             d eps       ncg     rms          rms(c)
DAV:   1    -0.241217556203E+03   -0.57487E-01   -0.15661E+01 43008   0.146E+01    0.699E-01
DAV:   2    -0.241271720985E+03   -0.54165E-01   -0.73732E-01 45808   0.278E+00    0.468E-01
DAV:   3    -0.241267750686E+03    0.39703E-02   -0.15330E-02 51968   0.504E-01    0.279E-01
DAV:   4    -0.241266426809E+03    0.13239E-02   -0.12249E-02 50768   0.382E-01    0.109E-01
DAV:   5    -0.241266269448E+03    0.15736E-03   -0.19708E-03 50816   0.176E-01    0.727E-02
DAV:   6    -0.241266259842E+03    0.96056E-05   -0.10754E-03 50576   0.103E-01    0.333E-02
DAV:   7    -0.241266254119E+03    0.57235E-05   -0.97871E-05 50400   0.400E-02    0.185E-02
DAV:   8    -0.241266255377E+03   -0.12580E-05   -0.45671E-05 51392   0.215E-02    0.744E-03
DAV:   9    -0.241266255032E+03    0.34421E-06   -0.25671E-06 33104   0.712E-03
  12 F= -.24126626E+03 E0= -.24126626E+03  d E =-.106186E+00  mag=    -0.0000
       N       E                     dE             d eps       ncg     rms          rms(c)
DAV:   1    -0.241267755313E+03   -0.14999E-02   -0.28797E+00 43008   0.625E+00    0.298E-01
DAV:   2    -0.241277594999E+03   -0.98397E-02   -0.13424E-01 45968   0.119E+00    0.199E-01
DAV:   3    -0.241276879872E+03    0.71513E-03   -0.28252E-03 51984   0.214E-01    0.117E-01
DAV:   4    -0.241276641662E+03    0.23821E-03   -0.21057E-03 50784   0.159E-01    0.448E-02
DAV:   5    -0.241276616644E+03    0.25018E-04   -0.33953E-04 50784   0.732E-02    0.297E-02
DAV:   6    -0.241276616044E+03    0.60085E-06   -0.18014E-04 50688   0.421E-02    0.142E-02
DAV:   7    -0.241276614868E+03    0.11755E-05   -0.16717E-05 48240   0.166E-02    0.784E-03
DAV:   8    -0.241276615191E+03   -0.32258E-06   -0.87308E-06 45856   0.939E-03
  13 F= -.24127662E+03 E0= -.24127662E+03  d E =-.116546E+00  mag=    -0.0000
       N       E                     dE             d eps       ncg     rms          rms(c)
DAV:   1    -0.241328585135E+03   -0.51970E-01   -0.17678E+01 43008   0.148E+01    0.908E-01
DAV:   2    -0.241333225608E+03   -0.46405E-02   -0.37308E-01 50128   0.203E+00    0.507E-01
DAV:   3    -0.241324590039E+03    0.86356E-02   -0.22208E-02 51936   0.648E-01    0.223E-01
DAV:   4    -0.241323557669E+03    0.10324E-02   -0.90473E-03 51904   0.328E-01    0.848E-02
DAV:   5    -0.241323444482E+03    0.11319E-03   -0.96662E-04 55184   0.137E-01    0.398E-02
DAV:   6    -0.241323451589E+03   -0.71067E-05   -0.29522E-04 50720   0.573E-02    0.282E-02
DAV:   7    -0.241323439703E+03    0.11886E-04   -0.36409E-05 51040   0.255E-02    0.128E-02
DAV:   8    -0.241323439033E+03    0.67052E-06   -0.24199E-05 50672   0.185E-02    0.647E-03
DAV:   9    -0.241323438862E+03    0.17046E-06   -0.45524E-06 46816   0.910E-03
  14 F= -.24132344E+03 E0= -.24132344E+03  d E =-.468237E-01  mag=     0.0000
       N       E                     dE             d eps       ncg     rms          rms(c)
DAV:   1    -0.241323567007E+03   -0.12797E-03   -0.38328E-02 44448   0.687E-01    0.413E-02
DAV:   2    -0.241323575744E+03   -0.87365E-05   -0.76338E-04 50240   0.925E-02    0.237E-02
DAV:   3    -0.241323555969E+03    0.19775E-04   -0.52511E-05 51920   0.304E-02    0.975E-03
DAV:   4    -0.241323553751E+03    0.22179E-05   -0.17447E-05 51936   0.143E-02    0.403E-03
DAV:   5    -0.241323553056E+03    0.69537E-06   -0.15639E-06 28976   0.580E-03
  15 F= -.24132355E+03 E0= -.24132355E+03  d E =-.469379E-01  mag=    -0.0000
       N       E                     dE             d eps       ncg     rms          rms(c)
DAV:   1    -0.241332211196E+03   -0.86574E-02   -0.47668E+00 43008   0.817E+00    0.429E-01
DAV:   2    -0.241346914286E+03   -0.14703E-01   -0.21520E-01 45280   0.153E+00    0.240E-01
DAV:   3    -0.241345813387E+03    0.11009E-02   -0.50985E-03 52048   0.278E-01    0.127E-01
DAV:   4    -0.241345502808E+03    0.31058E-03   -0.17268E-03 50880   0.150E-01    0.392E-02
DAV:   5    -0.241345505138E+03   -0.23305E-05   -0.27920E-04 51600   0.681E-02    0.251E-02
DAV:   6    -0.241345510746E+03   -0.56075E-05   -0.96762E-05 51056   0.322E-02    0.153E-02
DAV:   7    -0.241345509644E+03    0.11012E-05   -0.11361E-05 48560   0.144E-02    0.746E-03
DAV:   8    -0.241345510453E+03   -0.80821E-06   -0.68052E-06 44432   0.853E-03
  16 F= -.24134551E+03 E0= -.24134551E+03  d E =-.219574E-01  mag=     0.0000
       N       E                     dE             d eps       ncg     rms          rms(c)
DAV:   1    -0.241344088997E+03    0.14206E-02   -0.17460E+00 43008   0.495E+00    0.259E-01
DAV:   2    -0.241349488164E+03   -0.53992E-02   -0.78870E-02 45808   0.923E-01    0.145E-01
DAV:   3    -0.241349088171E+03    0.39999E-03   -0.18840E-03 52000   0.169E-01    0.769E-02
DAV:   4    -0.241348974977E+03    0.11319E-03   -0.63271E-04 50992   0.912E-02    0.240E-02
DAV:   5    -0.241348975992E+03   -0.10145E-05   -0.10297E-04 51600   0.414E-02    0.152E-02
DAV:   6    -0.241348978252E+03   -0.22601E-05   -0.36300E-05 49312   0.198E-02    0.932E-03
DAV:   7    -0.241348977971E+03    0.28105E-06   -0.42620E-06 44288   0.891E-03
  17 F= -.24134898E+03 E0= -.24134898E+03  d E =-.254249E-01  mag=    -0.0000
       N       E                     dE             d eps       ncg     rms          rms(c)
DAV:   1    -0.241345016143E+03    0.39621E-02   -0.53244E+00 43008   0.856E+00    0.404E-01
DAV:   2    -0.241364691844E+03   -0.19676E-01   -0.25233E-01 45216   0.162E+00    0.245E-01
DAV:   3    -0.241363662363E+03    0.10295E-02   -0.58690E-03 51968   0.304E-01    0.144E-01
DAV:   4    -0.241363281749E+03    0.38061E-03   -0.25999E-03 51024   0.184E-01    0.525E-02
DAV:   5    -0.241363257780E+03    0.23969E-04   -0.39771E-04 51712   0.857E-02    0.335E-02
DAV:   6    -0.241363263238E+03   -0.54581E-05   -0.23467E-04 50320   0.483E-02    0.193E-02
DAV:   7    -0.241363259392E+03    0.38454E-05   -0.22211E-05 50688   0.204E-02    0.999E-03
DAV:   8    -0.241363259696E+03   -0.30333E-06   -0.13866E-05 46640   0.118E-02    0.349E-03
DAV:   9    -0.241363259505E+03    0.19039E-06   -0.73443E-07 26880   0.405E-03
  18 F= -.24136326E+03 E0= -.24136326E+03  d E =-.142815E-01  mag=     0.0000
       N       E                     dE             d eps       ncg     rms          rms(c)
DAV:   1    -0.241362653329E+03    0.60637E-03   -0.36000E-01 43072   0.222E+00    0.105E-01
DAV:   2    -0.241363972125E+03   -0.13188E-02   -0.16947E-02 45632   0.420E-01    0.636E-02
DAV:   3    -0.241363901169E+03    0.70956E-04   -0.39504E-04 51968   0.790E-02    0.373E-02
DAV:   4    -0.241363874446E+03    0.26723E-04   -0.17535E-04 51088   0.477E-02    0.136E-02
DAV:   5    -0.241363872624E+03    0.18215E-05   -0.26908E-05 51728   0.222E-02    0.863E-03
DAV:   6    -0.241363872903E+03   -0.27879E-06   -0.15697E-05 47456   0.125E-02    0.504E-03
DAV:   7    -0.241363872567E+03    0.33663E-06   -0.12897E-06 28272   0.536E-03
  19 F= -.24136387E+03 E0= -.24136387E+03  d E =-.148946E-01  mag=     0.0000
       N       E                     dE             d eps       ncg     rms          rms(c)
DAV:   1    -0.241357702687E+03    0.61702E-02   -0.50798E+00 43008   0.848E+00    0.381E-01
DAV:   2    -0.241376513753E+03   -0.18811E-01   -0.23803E-01 45488   0.161E+00    0.224E-01
DAV:   3    -0.241375767147E+03    0.74661E-03   -0.49082E-03 52000   0.269E-01    0.129E-01
DAV:   4    -0.241375448563E+03    0.31858E-03   -0.15980E-03 51120   0.151E-01    0.390E-02
DAV:   5    -0.241375457297E+03   -0.87347E-05   -0.33732E-04 51648   0.720E-02    0.273E-02
DAV:   6    -0.241375459562E+03   -0.22646E-05   -0.10931E-04 50320   0.340E-02    0.162E-02
DAV:   7    -0.241375457986E+03    0.15763E-05   -0.12225E-05 47120   0.151E-02    0.754E-03
DAV:   8    -0.241375458611E+03   -0.62561E-06   -0.78775E-06 46192   0.926E-03
  20 F= -.24137546E+03 E0= -.24137546E+03  d E =-.115860E-01  mag=     0.0000
       N       E                     dE             d eps       ncg     rms          rms(c)
DAV:   1    -0.241374565109E+03    0.89288E-03   -0.42389E-01 43040   0.245E+00    0.110E-01
DAV:   2    -0.241376129537E+03   -0.15644E-02   -0.19798E-02 45952   0.465E-01    0.647E-02
DAV:   3    -0.241376068622E+03    0.60915E-04   -0.41061E-04 52016   0.780E-02    0.374E-02
DAV:   4    -0.241376042995E+03    0.25627E-04   -0.13510E-04 51184   0.437E-02    0.115E-02
DAV:   5    -0.241376043701E+03   -0.70604E-06   -0.27819E-05 51712   0.209E-02    0.792E-03
DAV:   6    -0.241376043992E+03   -0.29109E-06   -0.95368E-06 46752   0.101E-02
  21 F= -.24137604E+03 E0= -.24137604E+03  d E =-.121714E-01  mag=    -0.0000
       N       E                     dE             d eps       ncg     rms          rms(c)
DAV:   1    -0.241369663157E+03    0.63805E-02   -0.50475E+00 43008   0.836E+00    0.404E-01
DAV:   2    -0.241385276033E+03   -0.15613E-01   -0.21304E-01 45408   0.152E+00    0.250E-01
DAV:   3    -0.241384051946E+03    0.12241E-02   -0.56177E-03 52240   0.293E-01    0.138E-01
DAV:   4    -0.241383617460E+03    0.43449E-03   -0.18308E-03 51808   0.159E-01    0.428E-02
DAV:   5    -0.241383605876E+03    0.11584E-04   -0.32784E-04 51584   0.745E-02    0.269E-02
DAV:   6    -0.241383609960E+03   -0.40844E-05   -0.13311E-04 50896   0.368E-02    0.180E-02
DAV:   7    -0.241383605799E+03    0.41608E-05   -0.14149E-05 50848   0.164E-02    0.910E-03
DAV:   8    -0.241383605633E+03    0.16631E-06   -0.11864E-05 46800   0.110E-02    0.296E-03
DAV:   9    -0.241383605481E+03    0.15166E-06   -0.88032E-07 26880   0.418E-03
  22 F= -.24138361E+03 E0= -.24138361E+03  d E =-.756149E-02  mag=     0.0000
       N       E                     dE             d eps       ncg     rms          rms(c)
DAV:   1    -0.241383605284E+03    0.34934E-06   -0.16452E-04 46576   0.478E-02    0.219E-03
DAV:   2    -0.241383605796E+03   -0.51203E-06   -0.71347E-06 46992   0.885E-03
  23 F= -.24138361E+03 E0= -.24138361E+03  d E =-.756180E-02  mag=     0.0000
       N       E                     dE             d eps       ncg     rms          rms(c)
DAV:   1    -0.241382437298E+03    0.11680E-02   -0.21440E+00 43008   0.546E+00    0.270E-01
DAV:   2    -0.241388642978E+03   -0.62057E-02   -0.87240E-02 45616   0.991E-01    0.166E-01
DAV:   3    -0.241388093321E+03    0.54966E-03   -0.24855E-03 51968   0.197E-01    0.952E-02
DAV:   4    -0.241387874827E+03    0.21849E-03   -0.93817E-04 51440   0.114E-01    0.310E-02
DAV:   5    -0.241387863738E+03    0.11089E-04   -0.17989E-04 52528   0.567E-02    0.199E-02
DAV:   6    -0.241387864270E+03   -0.53128E-06   -0.72442E-05 50560   0.283E-02    0.129E-02
DAV:   7    -0.241387862743E+03    0.15266E-05   -0.76830E-06 46608   0.114E-02    0.585E-03
DAV:   8    -0.241387862627E+03    0.11626E-06   -0.41087E-06 44992   0.719E-03
  24 F= -.24138786E+03 E0= -.24138786E+03  d E =-.425683E-02  mag=    -0.0000
       N       E                     dE             d eps       ncg     rms          rms(c)
DAV:   1    -0.241387851646E+03    0.11097E-04   -0.10133E-02 44224   0.376E-01    0.185E-02
DAV:   2    -0.241387880866E+03   -0.29219E-04   -0.41459E-04 46560   0.686E-02    0.115E-02
DAV:   3    -0.241387878274E+03    0.25920E-05   -0.12166E-05 51968   0.137E-02    0.669E-03
DAV:   4    -0.241387877134E+03    0.11393E-05   -0.46436E-06 47056   0.808E-03    0.226E-03
DAV:   5    -0.241387877043E+03    0.91361E-07   -0.84554E-07 27280   0.417E-03
  25 F= -.24138788E+03 E0= -.24138788E+03  d E =-.427125E-02  mag=    -0.0000
       N       E                     dE             d eps       ncg     rms          rms(c)
DAV:   1    -0.241388986166E+03   -0.11090E-02   -0.84550E-01 43008   0.337E+00    0.221E-01
DAV:   2    -0.241390717430E+03   -0.17313E-02   -0.34696E-02 45872   0.598E-01    0.119E-01
DAV:   3    -0.241390424718E+03    0.29271E-03   -0.13767E-03 51920   0.140E-01    0.573E-02
DAV:   4    -0.241390368011E+03    0.56707E-04   -0.34030E-04 51072   0.685E-02    0.213E-02
DAV:   5    -0.241390364455E+03    0.35563E-05   -0.54902E-05 51712   0.308E-02    0.106E-02
DAV:   6    -0.241390365868E+03   -0.14131E-05   -0.20641E-05 50080   0.154E-02    0.659E-03
DAV:   7    -0.241390365937E+03   -0.69581E-07   -0.21109E-06 31376   0.665E-03
  26 F= -.24139037E+03 E0= -.24139037E+03  d E =-.248889E-02  mag=     0.0000
       N       E                     dE             d eps       ncg     rms          rms(c)
DAV:   1    -0.241390377298E+03   -0.11430E-04   -0.82231E-02 43168   0.105E+00    0.689E-02
DAV:   2    -0.241390547162E+03   -0.16986E-03   -0.33850E-03 46416   0.187E-01    0.372E-02
DAV:   3    -0.241390519836E+03    0.27326E-04   -0.13839E-04 51920   0.441E-02    0.180E-02
DAV:   4    -0.241390514725E+03    0.51109E-05   -0.32387E-05 51152   0.213E-02    0.678E-03
DAV:   5    -0.241390514693E+03    0.31517E-07   -0.55944E-06 47248   0.973E-03
  27 F= -.24139051E+03 E0= -.24139051E+03  d E =-.263765E-02  mag=    -0.0000
       N       E                     dE             d eps       ncg     rms          rms(c)
DAV:   1    -0.241390219764E+03    0.29496E-03   -0.46139E-01 43008   0.255E+00    0.116E-01
DAV:   2    -0.241391906587E+03   -0.16868E-02   -0.21535E-02 46128   0.491E-01    0.713E-02
DAV:   3    -0.241391838765E+03    0.67822E-04   -0.61489E-04 51968   0.959E-02    0.448E-02
DAV:   4    -0.241391802361E+03    0.36404E-04   -0.18434E-04 50752   0.492E-02    0.165E-02
DAV:   5    -0.241391798598E+03    0.37634E-05   -0.33927E-05 51968   0.256E-02    0.934E-03
DAV:   6    -0.241391798946E+03   -0.34825E-06   -0.17353E-05 49936   0.140E-02    0.548E-03
DAV:   7    -0.241391798829E+03    0.11732E-06   -0.23849E-06 33408   0.624E-03
  28 F= -.24139180E+03 E0= -.24139180E+03  d E =-.128414E-02  mag=    -0.0000
       N       E                     dE             d eps       ncg     rms          rms(c)
DAV:   1    -0.241391795382E+03    0.35645E-05   -0.31683E-03 44512   0.211E-01    0.955E-03
DAV:   2    -0.241391807056E+03   -0.11674E-04   -0.15014E-04 46608   0.411E-02    0.597E-03
DAV:   3    -0.241391806577E+03    0.47879E-06   -0.45464E-06 51488   0.816E-03
  29 F= -.24139181E+03 E0= -.24139181E+03  d E =-.129188E-02  mag=    -0.0000
       N       E                     dE             d eps       ncg     rms          rms(c)
DAV:   1    -0.241392002880E+03   -0.19582E-03   -0.18491E-01 43008   0.157E+00    0.749E-02
DAV:   2    -0.241392529681E+03   -0.52680E-03   -0.71535E-03 46832   0.278E-01    0.473E-02
DAV:   3    -0.241392488496E+03    0.41185E-04   -0.18995E-04 52432   0.539E-02    0.268E-02
DAV:   4    -0.241392473137E+03    0.15359E-04   -0.79775E-05 51120   0.327E-02    0.858E-03
DAV:   5    -0.241392472882E+03    0.25546E-06   -0.15200E-05 51728   0.153E-02    0.555E-03
DAV:   6    -0.241392472884E+03   -0.26484E-08   -0.47491E-06 42992   0.705E-03
  30 F= -.24139247E+03 E0= -.24139247E+03  d E =-.666307E-03  mag=     0.0000
       N       E                     dE             d eps       ncg     rms          rms(c)
DAV:   1    -0.241392472832E+03    0.49044E-07   -0.32963E-03 43904   0.210E-01    0.107E-02
DAV:   2    -0.241392482425E+03   -0.95927E-05   -0.13036E-04 46880   0.375E-02    0.637E-03
DAV:   3    -0.241392481554E+03    0.87099E-06   -0.31957E-06 40512   0.724E-03
  31 F= -.24139248E+03 E0= -.24139248E+03  d E =-.674977E-03  mag=     0.0000
       N       E                     dE             d eps       ncg     rms          rms(c)
DAV:   1    -0.241392862081E+03   -0.37966E-03   -0.10136E-01 43008   0.116E+00    0.648E-02
DAV:   2    -0.241393011369E+03   -0.14929E-03   -0.27838E-03 47408   0.178E-01    0.393E-02
DAV:   3    -0.241392974256E+03    0.37114E-04   -0.11792E-04 52816   0.440E-02    0.192E-02
DAV:   4    -0.241392967011E+03    0.72451E-05   -0.44509E-05 51088   0.236E-02    0.697E-03
DAV:   5    -0.241392966818E+03    0.19291E-06   -0.61896E-06 47424   0.106E-02
  32 F= -.24139297E+03 E0= -.24139297E+03  d E =-.485263E-03  mag=     0.0000
       N       E                     dE             d eps       ncg     rms          rms(c)
DAV:   1    -0.241392994234E+03   -0.27224E-04   -0.18414E-02 43168   0.493E-01    0.279E-02
DAV:   2    -0.241393022899E+03   -0.28665E-04   -0.50924E-04 47440   0.758E-02    0.168E-02
DAV:   3    -0.241393016384E+03    0.65152E-05   -0.20421E-05 52736   0.185E-02    0.821E-03
DAV:   4    -0.241393015281E+03    0.11029E-05   -0.83522E-06 48816   0.101E-02    0.305E-03
DAV:   5    -0.241393015321E+03   -0.40521E-07   -0.10096E-06 26880   0.464E-03
  33 F= -.24139302E+03 E0= -.24139302E+03  d E =-.533767E-03  mag=     0.0000
       N       E                     dE             d eps       ncg     rms          rms(c)
DAV:   1    -0.241393115187E+03   -0.99907E-04   -0.88247E-02 43008   0.110E+00    0.541E-02
DAV:   2    -0.241393367458E+03   -0.25227E-03   -0.33801E-03 46576   0.197E-01    0.331E-02
DAV:   3    -0.241393347503E+03    0.19955E-04   -0.81717E-05 51904   0.363E-02    0.184E-02
DAV:   4    -0.241393340706E+03    0.67971E-05   -0.39394E-05 50512   0.217E-02    0.589E-03
DAV:   5    -0.241393340597E+03    0.10924E-06   -0.62800E-06 45904   0.101E-02
  34 F= -.24139334E+03 E0= -.24139334E+03  d E =-.325276E-03  mag=    -0.0000
       N       E                     dE             d eps       ncg     rms          rms(c)
DAV:   1    -0.241393340536E+03    0.17029E-06   -0.16053E-03 44176   0.149E-01    0.820E-03
DAV:   2    -0.241393345404E+03   -0.48677E-05   -0.63352E-05 46624   0.268E-02    0.468E-03
DAV:   3    -0.241393345082E+03    0.32158E-06   -0.12165E-06 35808   0.496E-03
  35 F= -.24139335E+03 E0= -.24139335E+03  d E =-.329761E-03  mag=     0.0000
       N       E                     dE             d eps       ncg     rms          rms(c)
DAV:   1    -0.241393417084E+03   -0.71680E-04   -0.46404E-02 43008   0.792E-01    0.414E-02
DAV:   2    -0.241393529729E+03   -0.11265E-03   -0.16556E-03 47056   0.138E-01    0.259E-02
DAV:   3    -0.241393513690E+03    0.16040E-04   -0.45855E-05 51952   0.276E-02    0.137E-02
DAV:   4    -0.241393508493E+03    0.51968E-05   -0.22665E-05 51184   0.165E-02    0.442E-03
DAV:   5    -0.241393508142E+03    0.35074E-06   -0.33713E-06 35584   0.752E-03
  36 F= -.24139351E+03 E0= -.24139351E+03  d E =-.163060E-03  mag=     0.0000
       N       E                     dE             d eps       ncg     rms          rms(c)
DAV:   1    -0.241393508238E+03    0.25542E-06   -0.75169E-05 46592   0.319E-02    0.253E-03
DAV:   2    -0.241393508344E+03   -0.10622E-06   -0.28642E-06 38624   0.577E-03
  37 F= -.24139351E+03 E0= -.24139351E+03  d E =-.163262E-03  mag=     0.0000
       N       E                     dE             d eps       ncg     rms          rms(c)
DAV:   1    -0.241393577099E+03   -0.68862E-04   -0.27386E-02 43008   0.578E-01    0.253E-02
DAV:   2    -0.241393620108E+03   -0.43008E-04   -0.62718E-04 49552   0.817E-02    0.174E-02
DAV:   3    -0.241393612441E+03    0.76664E-05   -0.18582E-05 51632   0.180E-02    0.996E-03
DAV:   4    -0.241393610085E+03    0.23560E-05   -0.16425E-05 46928   0.141E-02    0.356E-03
DAV:   5    -0.241393610108E+03   -0.22801E-07   -0.27011E-06 32432   0.662E-03
  38 F= -.24139361E+03 E0= -.24139361E+03  d E =-.101764E-03  mag=     0.0000
       N       E                     dE             d eps       ncg     rms          rms(c)
DAV:   1    -0.241393612607E+03   -0.25214E-05   -0.33414E-04 45664   0.639E-02    0.337E-03
DAV:   2    -0.241393613368E+03   -0.76113E-06   -0.86471E-06 49536   0.939E-03
  39 F= -.24139361E+03 E0= -.24139361E+03  d E =-.105024E-03  mag=    -0.0000
       N       E                     dE             d eps       ncg     rms          rms(c)
DAV:   1    -0.241393641869E+03   -0.29262E-04   -0.76329E-03 43040   0.318E-01    0.156E-02
DAV:   2    -0.241393660413E+03   -0.18544E-04   -0.26290E-04 46592   0.541E-02    0.103E-02
DAV:   3    -0.241393657814E+03    0.25992E-05   -0.68745E-06 51824   0.108E-02    0.567E-03
DAV:   4    -0.241393657024E+03    0.79051E-06   -0.48699E-06 45312   0.765E-03
  40 F= -.24139366E+03 E0= -.24139366E+03  d E =-.436558E-04  mag=     0.0000
