       N       E                     dE             d eps       ncg     rms          rms(c)
DAV:   1     0.790206949999E+03    0.79021E+03   -0.67178E+04 24320   0.143E+03
DAV:   2    -0.211294316049E+03   -0.10015E+04   -0.96889E+03 30312   0.323E+02
DAV:   3    -0.282194230612E+03   -0.70900E+02   -0.70370E+02 27664   0.909E+01
DAV:   4    -0.283611418947E+03   -0.14172E+01   -0.14113E+01 29360   0.137E+01
DAV:   5    -0.283641717776E+03   -0.30299E-01   -0.30264E-01 28536   0.199E+00    0.367E+01
DAV:   6    -0.229569434263E+03    0.54072E+02   -0.23012E+02 29384   0.477E+01    0.105E+01
DAV:   7    -0.230036544563E+03   -0.46711E+00   -0.19793E+01 28936   0.146E+01    0.698E+00
DAV:   8    -0.229840578799E+03    0.19597E+00   -0.42683E+00 27568   0.558E+00    0.377E+00
DAV:   9    -0.229748115874E+03    0.92463E-01   -0.27226E+00 28720   0.373E+00    0.274E+00
DAV:  10    -0.229649133059E+03    0.98983E-01   -0.18020E+00 28488   0.233E+00    0.125E+00
DAV:  11    -0.229635058787E+03    0.14074E-01   -0.28000E-01 28608   0.115E+00    0.556E-01
DAV:  12    -0.229632390124E+03    0.26687E-02   -0.45878E-02 26672   0.568E-01    0.470E-01
DAV:  13    -0.229628452311E+03    0.39378E-02   -0.26943E-02 28240   0.342E-01    0.126E-01
DAV:  14    -0.229628345576E+03    0.10674E-03   -0.38397E-03 27352   0.167E-01    0.831E-02
DAV:  15    -0.229628450299E+03   -0.10472E-03   -0.44816E-04 28032   0.718E-02    0.450E-02
DAV:  16    -0.229628516544E+03   -0.66245E-04   -0.32255E-04 28920   0.423E-02    0.133E-02
DAV:  17    -0.229628513976E+03    0.25686E-05   -0.39940E-05 27208   0.204E-02    0.826E-03
DAV:  18    -0.229628510793E+03    0.31823E-05   -0.67647E-06 23648   0.771E-03    0.646E-03
DAV:  19    -0.229628508917E+03    0.18759E-05   -0.68505E-06 18008   0.494E-03    0.610E-03
DAV:  20    -0.229628509062E+03   -0.14481E-06   -0.12386E-06 15232   0.268E-03
   1 F= -.22962851E+03 E0= -.22962851E+03  d E =-.229629E+03  mag=     0.0001
       N       E                     dE             d eps       ncg     rms          rms(c)
DAV:   1    -0.219224312165E+03    0.10404E+02   -0.24852E+03 24064   0.204E+02    0.124E+01
DAV:   2    -0.233993499955E+03   -0.14769E+02   -0.20420E+02 26264   0.451E+01    0.103E+01
DAV:   3    -0.232258503899E+03    0.17350E+01   -0.15062E+01 29048   0.103E+01    0.685E+00
DAV:   4    -0.231296787543E+03    0.96172E+00   -0.67519E+00 27928   0.853E+00    0.254E+00
DAV:   5    -0.231182596566E+03    0.11419E+00   -0.10213E+00 29312   0.385E+00    0.135E+00
DAV:   6    -0.231157090268E+03    0.25506E-01   -0.18537E-01 28688   0.174E+00    0.694E-01
DAV:   7    -0.231155644539E+03    0.14457E-02   -0.67646E-02 29120   0.891E-01    0.390E-01
DAV:   8    -0.231152978242E+03    0.26663E-02   -0.10447E-02 32736   0.435E-01    0.165E-01
DAV:   9    -0.231153223842E+03   -0.24560E-03   -0.67256E-03 29144   0.282E-01    0.987E-02
DAV:  10    -0.231153093594E+03    0.13025E-03   -0.79556E-04 29744   0.116E-01    0.485E-02
DAV:  11    -0.231153099284E+03   -0.56894E-05   -0.50998E-04 28280   0.737E-02    0.186E-02
DAV:  12    -0.231153100274E+03   -0.99060E-06   -0.36438E-05 30024   0.252E-02    0.130E-02
DAV:  13    -0.231153100788E+03   -0.51354E-06   -0.33420E-05 31488   0.214E-02    0.506E-03
DAV:  14    -0.231153100843E+03   -0.55648E-07   -0.69222E-06 26048   0.912E-03
   2 F= -.23115310E+03 E0= -.23115310E+03  d E =-.152459E+01  mag=     0.0000
       N       E                     dE             d eps       ncg     rms          rms(c)
DAV:   1    -0.234978235795E+03   -0.38251E+01   -0.54837E+02 23936   0.939E+01    0.684E+00
DAV:   2    -0.236138001307E+03   -0.11598E+01   -0.31200E+01 26304   0.202E+01    0.383E+00
DAV:   3    -0.235800454113E+03    0.33755E+00   -0.19610E+00 29264   0.564E+00    0.179E+00
DAV:   4    -0.235761231794E+03    0.39222E-01   -0.41661E-01 28784   0.229E+00    0.784E-01
DAV:   5    -0.235749958502E+03    0.11273E-01   -0.62247E-02 28864   0.101E+00    0.316E-01
DAV:   6    -0.235750205730E+03   -0.24723E-03   -0.22290E-02 29800   0.509E-01    0.208E-01
DAV:   7    -0.235749756995E+03    0.44873E-03   -0.61795E-03 29408   0.239E-01    0.126E-01
DAV:   8    -0.235749584783E+03    0.17221E-03   -0.15845E-03 28640   0.139E-01    0.467E-02
DAV:   9    -0.235749599342E+03   -0.14559E-04   -0.33946E-04 31208   0.764E-02    0.258E-02
DAV:  10    -0.235749599194E+03    0.14788E-06   -0.79111E-05 27760   0.338E-02    0.154E-02
DAV:  11    -0.235749600356E+03   -0.11618E-05   -0.31080E-05 28480   0.191E-02    0.696E-03
DAV:  12    -0.235749601137E+03   -0.78104E-06   -0.42978E-06 25416   0.882E-03
   3 F= -.23574960E+03 E0= -.23574960E+03  d E =-.612109E+01  mag=     0.0000
       N       E                     dE             d eps       ncg     rms          rms(c)
DAV:   1    -0.235545505212E+03    0.20410E+00   -0.34001E+02 23936   0.735E+01    0.326E+00
DAV:   2    -0.237215864466E+03   -0.16704E+01   -0.19835E+01 25024   0.151E+01    0.222E+00
DAV:   3    -0.237132538090E+03    0.83326E-01   -0.43343E-01 29296   0.273E+00    0.130E+00
DAV:   4    -0.237097951685E+03    0.34586E-01   -0.17091E-01 29120   0.163E+00    0.449E-01
DAV:   5    -0.237097654227E+03    0.29746E-03   -0.33921E-02 28576   0.761E-01    0.246E-01
DAV:   6    -0.237097978035E+03   -0.32381E-03   -0.91605E-03 28656   0.321E-01    0.145E-01
DAV:   7    -0.237097763459E+03    0.21458E-03   -0.11549E-03 29808   0.137E-01    0.574E-02
DAV:   8    -0.237097794781E+03   -0.31321E-04   -0.44617E-04 28672   0.809E-02    0.268E-02
DAV:   9    -0.237097783090E+03    0.11690E-04   -0.83358E-05 28768   0.370E-02    0.110E-02
DAV:  10    -0.237097784343E+03   -0.12524E-05   -0.26351E-05 27856   0.180E-02    0.596E-03
DAV:  11    -0.237097784309E+03    0.33873E-07   -0.15377E-06 17384   0.606E-03
   4 F= -.23709778E+03 E0= -.23709778E+03  d E =-.134818E+01  mag=    -0.0000
       N       E                     dE             d eps       ncg     rms          rms(c)
DAV:   1    -0.237114883622E+03   -0.17099E-01   -0.70328E+00 23936   0.105E+01    0.479E-01
DAV:   2    -0.237142875973E+03   -0.27992E-01   -0.36979E-01 25368   0.212E+00    0.304E-01
DAV:   3    -0.237141201438E+03    0.16745E-02   -0.97555E-03 29408   0.424E-01    0.165E-01
DAV:   4    -0.237140714375E+03    0.48706E-03   -0.28761E-03 28640   0.208E-01    0.568E-02
DAV:   5    -0.237140695230E+03    0.19145E-04   -0.45562E-04 30576   0.913E-02    0.303E-02
DAV:   6    -0.237140694735E+03    0.49479E-06   -0.99814E-05 28160   0.362E-02    0.182E-02
DAV:   7    -0.237140689969E+03    0.47664E-05   -0.14512E-05 29776   0.171E-02    0.778E-03
DAV:   8    -0.237140688999E+03    0.96984E-06   -0.59042E-06 28208   0.105E-02
   5 F= -.23714069E+03 E0= -.23714069E+03  d E =-.139109E+01  mag=     0.0000
       N       E                     dE             d eps       ncg     rms          rms(c)
DAV:   1    -0.236517746416E+03    0.62294E+00   -0.20048E+02 23936   0.569E+01    0.257E+00
DAV:   2    -0.237495144159E+03   -0.97740E+00   -0.12794E+01 25840   0.123E+01    0.196E+00
DAV:   3    -0.237428345710E+03    0.66798E-01   -0.29861E-01 29360   0.240E+00    0.123E+00
DAV:   4    -0.237401259363E+03    0.27086E-01   -0.27556E-01 28416   0.178E+00    0.552E-01
DAV:   5    -0.237395695247E+03    0.55641E-02   -0.34905E-02 30240   0.834E-01    0.316E-01
DAV:   6    -0.237395658210E+03    0.37037E-04   -0.24524E-02 27808   0.518E-01    0.157E-01
DAV:   7    -0.237395416674E+03    0.24154E-03   -0.23521E-03 27744   0.190E-01    0.692E-02
DAV:   8    -0.237395390560E+03    0.26114E-04   -0.72631E-04 29168   0.102E-01    0.339E-02
DAV:   9    -0.237395381443E+03    0.91170E-05   -0.88721E-05 30688   0.423E-02    0.225E-02
DAV:  10    -0.237395377880E+03    0.35629E-05   -0.78689E-05 27616   0.308E-02    0.636E-03
DAV:  11    -0.237395378236E+03   -0.35582E-06   -0.80158E-06 27520   0.122E-02
   6 F= -.23739538E+03 E0= -.23739538E+03  d E =-.254689E+00  mag=     0.0000
       N       E                     dE             d eps       ncg     rms          rms(c)
DAV:   1    -0.237415230291E+03   -0.19852E-01   -0.27975E+01 23936   0.212E+01    0.100E+00
DAV:   2    -0.237535803362E+03   -0.12057E+00   -0.16744E+00 25984   0.450E+00    0.666E-01
DAV:   3    -0.237527889295E+03    0.79141E-02   -0.39575E-02 29376   0.821E-01    0.392E-01
DAV:   4    -0.237524689497E+03    0.31998E-02   -0.21211E-02 28464   0.511E-01    0.135E-01
DAV:   5    -0.237524438519E+03    0.25098E-03   -0.29083E-03 30160   0.241E-01    0.832E-02
DAV:   6    -0.237524444247E+03   -0.57282E-05   -0.14757E-03 28240   0.132E-01    0.474E-02
DAV:   7    -0.237524423679E+03    0.20568E-04   -0.16918E-04 27984   0.495E-02    0.174E-02
DAV:   8    -0.237524421804E+03    0.18747E-05   -0.35399E-05 29184   0.262E-02    0.561E-03
DAV:   9    -0.237524422272E+03   -0.46802E-06   -0.94169E-06 27632   0.115E-02
   7 F= -.23752442E+03 E0= -.23752442E+03  d E =-.383733E+00  mag=     0.0000
       N       E                     dE             d eps       ncg     rms          rms(c)
DAV:   1    -0.237711165223E+03   -0.18674E+00   -0.10744E+02 23936   0.390E+01    0.170E+00
DAV:   2    -0.237853392016E+03   -0.14223E+00   -0.24203E+00 26960   0.537E+00    0.127E+00
DAV:   3    -0.237808449216E+03    0.44943E-01   -0.79377E-02 29328   0.125E+00    0.696E-01
DAV:   4    -0.237794285354E+03    0.14164E-01   -0.87665E-02 28416   0.116E+00    0.224E-01
DAV:   5    -0.237794468580E+03   -0.18323E-03   -0.19049E-02 27712   0.536E-01    0.171E-01
DAV:   6    -0.237794381520E+03    0.87060E-04   -0.40565E-03 28256   0.204E-01    0.864E-02
DAV:   7    -0.237794306824E+03    0.74696E-04   -0.34973E-04 27328   0.761E-02    0.514E-02
DAV:   8    -0.237794317881E+03   -0.11056E-04   -0.26405E-04 31056   0.625E-02    0.314E-02
DAV:   9    -0.237794295034E+03    0.22847E-04   -0.62914E-05 30784   0.364E-02    0.131E-02
DAV:  10    -0.237794295874E+03   -0.83984E-06   -0.50729E-05 28256   0.228E-02    0.537E-03
DAV:  11    -0.237794295584E+03    0.28938E-06   -0.31302E-06 20864   0.769E-03
   8 F= -.23779430E+03 E0= -.23779430E+03  d E =-.269873E+00  mag=     0.0000
       N       E                     dE             d eps       ncg     rms          rms(c)
DAV:   1    -0.237794389142E+03   -0.93269E-04   -0.49534E-02 24224   0.839E-01    0.373E-02
DAV:   2    -0.237794450982E+03   -0.61839E-04   -0.10975E-03 27056   0.114E-01    0.260E-02
DAV:   3    -0.237794431064E+03    0.19917E-04   -0.34397E-05 29376   0.272E-02    0.139E-02
DAV:   4    -0.237794425791E+03    0.52739E-05   -0.35711E-05 28752   0.232E-02    0.468E-03
DAV:   5    -0.237794425844E+03   -0.53878E-07   -0.70544E-06 26688   0.106E-02
   9 F= -.23779443E+03 E0= -.23779443E+03  d E =-.270004E+00  mag=    -0.0000
       N       E                     dE             d eps       ncg     rms          rms(c)
DAV:   1    -0.237732812253E+03    0.61614E-01   -0.53096E+01 23936   0.290E+01    0.132E+00
DAV:   2    -0.237909508231E+03   -0.17670E+00   -0.23491E+00 25920   0.524E+00    0.896E-01
DAV:   3    -0.237892292632E+03    0.17216E-01   -0.45451E-02 29392   0.978E-01    0.502E-01
DAV:   4    -0.237886536060E+03    0.57566E-02   -0.42795E-02 28928   0.800E-01    0.183E-01
DAV:   5    -0.237886354760E+03    0.18130E-03   -0.91424E-03 28592   0.383E-01    0.119E-01
DAV:   6    -0.237886365306E+03   -0.10546E-04   -0.22930E-03 27968   0.154E-01    0.583E-02
DAV:   7    -0.237886349655E+03    0.15651E-04   -0.16218E-04 29856   0.591E-02    0.358E-02
DAV:   8    -0.237886349032E+03    0.62372E-06   -0.99055E-05 28848   0.390E-02    0.188E-02
DAV:   9    -0.237886342655E+03    0.63763E-05   -0.22515E-05 31600   0.199E-02    0.922E-03
DAV:  10    -0.237886342246E+03    0.40969E-06   -0.14472E-05 27424   0.124E-02    0.285E-03
DAV:  11    -0.237886342246E+03   -0.24011E-09   -0.97401E-07 15632   0.457E-03
  10 F= -.23788634E+03 E0= -.23788634E+03  d E =-.919164E-01  mag=    -0.0000
       N       E                     dE             d eps       ncg     rms          rms(c)
DAV:   1    -0.237887741283E+03   -0.13990E-02   -0.30909E+00 23936   0.698E+00    0.319E-01
DAV:   2    -0.237897683644E+03   -0.99424E-02   -0.13326E-01 25584   0.125E+00    0.211E-01
DAV:   3    -0.237896715227E+03    0.96842E-03   -0.25861E-03 29472   0.234E-01    0.116E-01
DAV:   4    -0.237896411406E+03    0.30382E-03   -0.22357E-03 28896   0.184E-01    0.413E-02
DAV:   5    -0.237896405349E+03    0.60576E-05   -0.48283E-04 28672   0.880E-02    0.267E-02
DAV:   6    -0.237896406702E+03   -0.13534E-05   -0.10363E-04 28000   0.332E-02    0.133E-02
DAV:   7    -0.237896405966E+03    0.73573E-06   -0.64122E-06 28176   0.121E-02
  11 F= -.23789641E+03 E0= -.23789641E+03  d E =-.101980E+00  mag=     0.0000
       N       E                     dE             d eps       ncg     rms          rms(c)
DAV:   1    -0.237838066892E+03    0.58340E-01   -0.26709E+01 23936   0.208E+01    0.972E-01
DAV:   2    -0.237959532208E+03   -0.12147E+00   -0.15845E+00 25600   0.434E+00    0.590E-01
DAV:   3    -0.237954951394E+03    0.45808E-02   -0.35429E-02 29136   0.779E-01    0.371E-01
DAV:   4    -0.237952794175E+03    0.21572E-02   -0.20814E-02 27392   0.501E-01    0.153E-01
DAV:   5    -0.237952382106E+03    0.41207E-03   -0.24497E-03 29408   0.234E-01    0.964E-02
DAV:   6    -0.237952360022E+03    0.22084E-04   -0.20452E-03 27616   0.152E-01    0.448E-02
DAV:   7    -0.237952356642E+03    0.33799E-05   -0.21394E-04 28432   0.572E-02    0.214E-02
DAV:   8    -0.237952355297E+03    0.13450E-05   -0.52827E-05 28320   0.261E-02    0.745E-03
DAV:   9    -0.237952354633E+03    0.66417E-06   -0.52262E-06 28272   0.105E-02
  12 F= -.23795235E+03 E0= -.23795235E+03  d E =-.559487E-01  mag=    -0.0000
       N       E                     dE             d eps       ncg     rms          rms(c)
DAV:   1    -0.237951825161E+03    0.53014E-03   -0.32638E-01 23936   0.230E+00    0.109E-01
DAV:   2    -0.237953271519E+03   -0.14464E-02   -0.19133E-02 25504   0.476E-01    0.623E-02
DAV:   3    -0.237953223279E+03    0.48240E-04   -0.44501E-04 29040   0.847E-02    0.386E-02
DAV:   4    -0.237953199176E+03    0.24103E-04   -0.19117E-04 27456   0.483E-02    0.143E-02
DAV:   5    -0.237953196098E+03    0.30781E-05   -0.22120E-05 29584   0.229E-02    0.900E-03
DAV:   6    -0.237953196009E+03    0.89618E-07   -0.18360E-05 27760   0.147E-02    0.479E-03
DAV:   7    -0.237953195929E+03    0.79808E-07   -0.20993E-06 18048   0.593E-03
  13 F= -.23795320E+03 E0= -.23795320E+03  d E =-.567900E-01  mag=    -0.0000
       N       E                     dE             d eps       ncg     rms          rms(c)
DAV:   1    -0.237967366606E+03   -0.14171E-01   -0.13242E+01 23936   0.144E+01    0.880E-01
DAV:   2    -0.237992495976E+03   -0.25129E-01   -0.51497E-01 26000   0.248E+00    0.446E-01
DAV:   3    -0.237987616285E+03    0.48797E-02   -0.16078E-02 29536   0.536E-01    0.214E-01
DAV:   4    -0.237986670380E+03    0.94590E-03   -0.64236E-03 28624   0.293E-01    0.712E-02
DAV:   5    -0.237986657110E+03    0.13271E-04   -0.85198E-04 29296   0.121E-01    0.408E-02
DAV:   6    -0.237986670293E+03   -0.13183E-04   -0.24449E-04 28032   0.517E-02    0.251E-02
DAV:   7    -0.237986666648E+03    0.36453E-05   -0.31492E-05 32752   0.248E-02    0.116E-02
DAV:   8    -0.237986668754E+03   -0.21060E-05   -0.14277E-05 28000   0.141E-02    0.524E-03
DAV:   9    -0.237986668475E+03    0.27884E-06   -0.19693E-06 17280   0.614E-03
  14 F= -.23798667E+03 E0= -.23798667E+03  d E =-.334725E-01  mag=    -0.0000
       N       E                     dE             d eps       ncg     rms          rms(c)
DAV:   1    -0.237986672055E+03   -0.33007E-05   -0.38060E-03 25056   0.245E-01    0.146E-02
DAV:   2    -0.237986679909E+03   -0.78546E-05   -0.14793E-04 26080   0.419E-02    0.780E-03
DAV:   3    -0.237986678716E+03    0.11927E-05   -0.47341E-06 28192   0.940E-03    0.371E-03
DAV:   4    -0.237986678661E+03    0.55812E-07   -0.19202E-06 18912   0.523E-03
  15 F= -.23798668E+03 E0= -.23798668E+03  d E =-.334827E-01  mag=    -0.0000
       N       E                     dE             d eps       ncg     rms          rms(c)
DAV:   1    -0.238007209217E+03   -0.20531E-01   -0.11656E+01 23936   0.133E+01    0.703E-01
DAV:   2    -0.238027134135E+03   -0.19925E-01   -0.35741E-01 26032   0.207E+00    0.425E-01
DAV:   3    -0.238022327332E+03    0.48068E-02   -0.10978E-02 29632   0.462E-01    0.221E-01
DAV:   4    -0.238021040726E+03    0.12866E-02   -0.67741E-03 28336   0.308E-01    0.684E-02
DAV:   5    -0.238021052061E+03   -0.11336E-04   -0.11806E-03 27712   0.134E-01    0.452E-02
DAV:   6    -0.238021053756E+03   -0.16944E-05   -0.24956E-04 28416   0.527E-02    0.244E-02
DAV:   7    -0.238021047809E+03    0.59469E-05   -0.27447E-05 28832   0.223E-02    0.144E-02
DAV:   8    -0.238021049209E+03   -0.14000E-05   -0.24821E-05 28416   0.167E-02    0.685E-03
DAV:   9    -0.238021048239E+03    0.96955E-06   -0.35196E-06 22320   0.789E-03
  16 F= -.23802105E+03 E0= -.23802105E+03  d E =-.343696E-01  mag=    -0.0000
       N       E                     dE             d eps       ncg     rms          rms(c)
DAV:   1    -0.238021462528E+03   -0.41332E-03   -0.49768E+00 23936   0.870E+00    0.459E-01
DAV:   2    -0.238029836681E+03   -0.83742E-02   -0.15096E-01 26000   0.135E+00    0.278E-01
DAV:   3    -0.238027774592E+03    0.20621E-02   -0.47399E-03 29696   0.302E-01    0.143E-01
DAV:   4    -0.238027237675E+03    0.53692E-03   -0.28087E-03 28320   0.198E-01    0.443E-02
DAV:   5    -0.238027242077E+03   -0.44019E-05   -0.48555E-04 27840   0.858E-02    0.289E-02
DAV:   6    -0.238027243174E+03   -0.10966E-05   -0.99812E-05 28544   0.336E-02    0.158E-02
DAV:   7    -0.238027240659E+03    0.25147E-05   -0.11498E-05 28512   0.146E-02    0.908E-03
DAV:   8    -0.238027241353E+03   -0.69379E-06   -0.10242E-05 27024   0.107E-02    0.442E-03
DAV:   9    -0.238027240925E+03    0.42739E-06   -0.12112E-06 15248   0.506E-03
  17 F= -.23802724E+03 E0= -.23802724E+03  d E =-.405623E-01  mag=     0.0000
       N       E                     dE             d eps       ncg     rms          rms(c)
DAV:   1    -0.238023717838E+03    0.35235E-02   -0.56633E+00 23936   0.960E+00    0.463E-01
DAV:   2    -0.238051805983E+03   -0.28088E-01   -0.36557E-01 25264   0.204E+00    0.250E-01
DAV:   3    -0.238051374518E+03    0.43146E-03   -0.96713E-03 29168   0.388E-01    0.161E-01
DAV:   4    -0.238050988089E+03    0.38643E-03   -0.22090E-03 27824   0.167E-01    0.647E-02
DAV:   5    -0.238050909933E+03    0.78156E-04   -0.30026E-04 29216   0.911E-02    0.320E-02
DAV:   6    -0.238050911312E+03   -0.13785E-05   -0.25408E-04 28640   0.575E-02    0.178E-02
DAV:   7    -0.238050910244E+03    0.10672E-05   -0.35315E-05 27440   0.225E-02    0.125E-02
DAV:   8    -0.238050908099E+03    0.21450E-05   -0.17047E-05 27456   0.131E-02    0.244E-03
DAV:   9    -0.238050908250E+03   -0.15110E-06   -0.17324E-06 16848   0.508E-03
  18 F= -.23805091E+03 E0= -.23805091E+03  d E =-.236673E-01  mag=    -0.0000
       N       E                     dE             d eps       ncg     rms          rms(c)
DAV:   1    -0.238006737180E+03    0.44171E-01   -0.11363E+01 23936   0.136E+01    0.654E-01
DAV:   2    -0.238063735153E+03   -0.56998E-01   -0.73988E-01 25392   0.291E+00    0.354E-01
DAV:   3    -0.238062930483E+03    0.80467E-03   -0.20349E-02 29216   0.562E-01    0.232E-01
DAV:   4    -0.238062127104E+03    0.80338E-03   -0.45330E-03 27952   0.240E-01    0.947E-02
DAV:   5    -0.238061955653E+03    0.17145E-03   -0.66836E-04 29216   0.133E-01    0.465E-02
DAV:   6    -0.238061955242E+03    0.41136E-06   -0.51629E-04 28976   0.831E-02    0.252E-02
DAV:   7    -0.238061955051E+03    0.19094E-06   -0.82372E-05 27344   0.332E-02    0.184E-02
DAV:   8    -0.238061950477E+03    0.45741E-05   -0.31331E-05 27792   0.179E-02    0.368E-03
DAV:   9    -0.238061950708E+03   -0.23127E-06   -0.42473E-06 24000   0.783E-03
  19 F= -.23806195E+03 E0= -.23806195E+03  d E =-.347098E-01  mag=     0.0000
       N       E                     dE             d eps       ncg     rms          rms(c)
DAV:   1    -0.238065240683E+03   -0.32902E-02   -0.40001E+00 23936   0.800E+00    0.438E-01
DAV:   2    -0.238079548657E+03   -0.14308E-01   -0.21510E-01 25744   0.160E+00    0.225E-01
DAV:   3    -0.238078820805E+03    0.72785E-03   -0.64379E-03 29472   0.322E-01    0.129E-01
DAV:   4    -0.238078531996E+03    0.28881E-03   -0.14968E-03 28528   0.149E-01    0.479E-02
DAV:   5    -0.238078500721E+03    0.31275E-04   -0.23429E-04 29280   0.725E-02    0.235E-02
DAV:   6    -0.238078504432E+03   -0.37120E-05   -0.13430E-04 28432   0.410E-02    0.146E-02
DAV:   7    -0.238078502252E+03    0.21804E-05   -0.17894E-05 28032   0.178E-02    0.781E-03
DAV:   8    -0.238078502400E+03   -0.14822E-06   -0.97435E-06 28080   0.103E-02
  20 F= -.23807850E+03 E0= -.23807850E+03  d E =-.165517E-01  mag=    -0.0000
       N       E                     dE             d eps       ncg     rms          rms(c)
DAV:   1    -0.238071344674E+03    0.71576E-02   -0.37063E+00 23936   0.770E+00    0.421E-01
DAV:   2    -0.238084575173E+03   -0.13230E-01   -0.19896E-01 25792   0.154E+00    0.217E-01
DAV:   3    -0.238083895409E+03    0.67976E-03   -0.60560E-03 29472   0.312E-01    0.125E-01
DAV:   4    -0.238083623472E+03    0.27194E-03   -0.14159E-03 28608   0.145E-01    0.466E-02
DAV:   5    -0.238083592249E+03    0.31223E-04   -0.22200E-04 29216   0.708E-02    0.227E-02
DAV:   6    -0.238083595752E+03   -0.35031E-05   -0.12869E-04 28560   0.402E-02    0.142E-02
DAV:   7    -0.238083593726E+03    0.20260E-05   -0.17480E-05 27952   0.175E-02    0.766E-03
DAV:   8    -0.238083593852E+03   -0.12604E-06   -0.92228E-06 27984   0.100E-02
  21 F= -.23808359E+03 E0= -.23808359E+03  d E =-.216431E-01  mag=     0.0000
       N       E                     dE             d eps       ncg     rms          rms(c)
DAV:   1    -0.238091661975E+03   -0.80682E-02   -0.22401E+00 23936   0.584E+00    0.385E-01
DAV:   2    -0.238093960513E+03   -0.22985E-02   -0.70953E-02 26160   0.928E-01    0.215E-01
DAV:   3    -0.238092669408E+03    0.12911E-02   -0.33245E-03 29616   0.246E-01    0.945E-02
DAV:   4    -0.238092456231E+03    0.21318E-03   -0.10959E-03 28592   0.126E-01    0.334E-02
DAV:   5    -0.238092454079E+03    0.21522E-05   -0.20275E-04 29408   0.513E-02    0.164E-02
DAV:   6    -0.238092452324E+03    0.17554E-05   -0.17833E-05 29776   0.184E-02    0.101E-02
DAV:   7    -0.238092452612E+03   -0.28822E-06   -0.64543E-06 28000   0.925E-03
  22 F= -.23809245E+03 E0= -.23809245E+03  d E =-.885876E-02  mag=     0.0000
       N       E                     dE             d eps       ncg     rms          rms(c)
DAV:   1    -0.238092769015E+03   -0.31669E-03   -0.13965E-01 24192   0.146E+00    0.955E-02
DAV:   2    -0.238092918334E+03   -0.14932E-03   -0.44302E-03 26144   0.232E-01    0.540E-02
DAV:   3    -0.238092838087E+03    0.80247E-04   -0.20930E-04 29584   0.619E-02    0.236E-02
DAV:   4    -0.238092825421E+03    0.12666E-04   -0.69345E-05 28624   0.314E-02    0.857E-03
DAV:   5    -0.238092825621E+03   -0.19951E-06   -0.12688E-05 29344   0.129E-02    0.412E-03
DAV:   6    -0.238092825582E+03    0.38338E-07   -0.10422E-06 15696   0.470E-03
  23 F= -.23809283E+03 E0= -.23809283E+03  d E =-.923173E-02  mag=     0.0000
       N       E                     dE             d eps       ncg     rms          rms(c)
DAV:   1    -0.238095308977E+03   -0.24834E-02   -0.73996E-01 23968   0.337E+00    0.155E-01
DAV:   2    -0.238097291645E+03   -0.19827E-02   -0.29621E-02 26096   0.614E-01    0.981E-02
DAV:   3    -0.238097115847E+03    0.17580E-03   -0.12887E-03 28944   0.144E-01    0.601E-02
DAV:   4    -0.238097038916E+03    0.76931E-04   -0.33262E-04 29056   0.700E-02    0.232E-02
DAV:   5    -0.238097024514E+03    0.14402E-04   -0.73157E-05 29264   0.398E-02    0.113E-02
DAV:   6    -0.238097024607E+03   -0.92642E-07   -0.32860E-05 28288   0.203E-02    0.769E-03
DAV:   7    -0.238097024101E+03    0.50601E-06   -0.37601E-06 21472   0.746E-03
  24 F= -.23809702E+03 E0= -.23809702E+03  d E =-.419852E-02  mag=     0.0000
       N       E                     dE             d eps       ncg     rms          rms(c)
DAV:   1    -0.238096985588E+03    0.39019E-04   -0.34437E-01 23968   0.230E+00    0.106E-01
DAV:   2    -0.238097908582E+03   -0.92299E-03   -0.13801E-02 26224   0.419E-01    0.671E-02
DAV:   3    -0.238097826062E+03    0.82520E-04   -0.61044E-04 28928   0.991E-02    0.411E-02
DAV:   4    -0.238097789726E+03    0.36336E-04   -0.15177E-04 29232   0.474E-02    0.160E-02
DAV:   5    -0.238097782392E+03    0.73341E-05   -0.35193E-05 29232   0.274E-02    0.759E-03
DAV:   6    -0.238097782428E+03   -0.35849E-07   -0.15186E-05 28320   0.138E-02    0.525E-03
DAV:   7    -0.238097782159E+03    0.26903E-06   -0.16704E-06 17088   0.505E-03
  25 F= -.23809778E+03 E0= -.23809778E+03  d E =-.495658E-02  mag=     0.0000
       N       E                     dE             d eps       ncg     rms          rms(c)
DAV:   1    -0.238098546099E+03   -0.76367E-03   -0.40638E-01 23968   0.251E+00    0.128E-01
DAV:   2    -0.238099624292E+03   -0.10782E-02   -0.16381E-02 25664   0.446E-01    0.840E-02
DAV:   3    -0.238099474479E+03    0.14981E-03   -0.54054E-04 29360   0.990E-02    0.481E-02
DAV:   4    -0.238099423006E+03    0.51473E-04   -0.29855E-04 29248   0.649E-02    0.169E-02
DAV:   5    -0.238099417871E+03    0.51354E-05   -0.46090E-05 29712   0.303E-02    0.106E-02
DAV:   6    -0.238099418195E+03   -0.32388E-06   -0.25358E-05 28528   0.163E-02    0.616E-03
DAV:   7    -0.238099417800E+03    0.39430E-06   -0.19811E-06 17888   0.659E-03
  26 F= -.23809942E+03 E0= -.23809942E+03  d E =-.163564E-02  mag=    -0.0000
       N       E                     dE             d eps       ncg     rms          rms(c)
DAV:   1    -0.238099424865E+03   -0.66702E-05   -0.75625E-03 24112   0.342E-01    0.176E-02
DAV:   2    -0.238099445066E+03   -0.20201E-04   -0.30849E-04 26000   0.614E-02    0.113E-02
DAV:   3    -0.238099442555E+03    0.25113E-05   -0.11263E-05 29360   0.140E-02    0.660E-03
DAV:   4    -0.238099441594E+03    0.96128E-06   -0.48814E-06 27088   0.856E-03
  27 F= -.23809944E+03 E0= -.23809944E+03  d E =-.165943E-02  mag=     0.0000
       N       E                     dE             d eps       ncg     rms          rms(c)
DAV:   1    -0.238100115345E+03   -0.67279E-03   -0.13990E-01 23968   0.144E+00    0.834E-02
DAV:   2    -0.238100283020E+03   -0.16767E-03   -0.38387E-03 26912   0.221E-01    0.558E-02
DAV:   3    -0.238100191189E+03    0.91830E-04   -0.20771E-04 29424   0.651E-02    0.248E-02
DAV:   4    -0.238100177402E+03    0.13787E-04   -0.80718E-05 28256   0.335E-02    0.888E-03
DAV:   5    -0.238100177046E+03    0.35629E-06   -0.13085E-05 29392   0.134E-02    0.414E-03
DAV:   6    -0.238100176978E+03    0.68049E-07   -0.11655E-06 15808   0.469E-03
  28 F= -.23810018E+03 E0= -.23810018E+03  d E =-.735384E-03  mag=     0.0000
       N       E                     dE             d eps       ncg     rms          rms(c)
DAV:   1    -0.238100192703E+03   -0.15657E-04   -0.51762E-03 24240   0.277E-01    0.159E-02
DAV:   2    -0.238100199724E+03   -0.70209E-05   -0.14529E-04 27008   0.428E-02    0.106E-02
DAV:   3    -0.238100196569E+03    0.31543E-05   -0.71907E-06 29184   0.122E-02    0.485E-03
DAV:   4    -0.238100196078E+03    0.49156E-06   -0.28127E-06 20568   0.652E-03
  29 F= -.23810020E+03 E0= -.23810020E+03  d E =-.754484E-03  mag=     0.0000
       N       E                     dE             d eps       ncg     rms          rms(c)
DAV:   1    -0.238100431650E+03   -0.23508E-03   -0.58150E-02 24000   0.945E-01    0.431E-02
DAV:   2    -0.238100580477E+03   -0.14883E-03   -0.21135E-03 25984   0.165E-01    0.290E-02
DAV:   3    -0.238100563537E+03    0.16941E-04   -0.73568E-05 29376   0.355E-02    0.178E-02
DAV:   4    -0.238100555290E+03    0.82473E-05   -0.44838E-05 27856   0.231E-02    0.673E-03
DAV:   5    -0.238100554198E+03    0.10915E-05   -0.53373E-06 26320   0.116E-02    0.459E-03
DAV:   6    -0.238100554174E+03    0.24459E-07   -0.53184E-06 24880   0.758E-03
  30 F= -.23810055E+03 E0= -.23810055E+03  d E =-.358096E-03  mag=    -0.0000
       N       E                     dE             d eps       ncg     rms          rms(c)
DAV:   1    -0.238100558440E+03   -0.42421E-05   -0.85531E-03 24016   0.362E-01    0.167E-02
DAV:   2    -0.238100580384E+03   -0.21944E-04   -0.31441E-04 26032   0.635E-02    0.111E-02
DAV:   3    -0.238100577717E+03    0.26673E-05   -0.11073E-05 29376   0.137E-02    0.680E-03
DAV:   4    -0.238100576318E+03    0.13986E-05   -0.60834E-06 26304   0.853E-03    0.249E-03
DAV:   5    -0.238100576096E+03    0.22269E-06   -0.65738E-07 15200   0.441E-03
  31 F= -.23810058E+03 E0= -.23810058E+03  d E =-.380018E-03  mag=     0.0000
       N       E                     dE             d eps       ncg     rms          rms(c)
DAV:   1    -0.238100722149E+03   -0.14583E-03   -0.44849E-02 23984   0.816E-01    0.400E-02
DAV:   2    -0.238100800130E+03   -0.77981E-04   -0.12782E-03 25952   0.125E-01    0.264E-02
DAV:   3    -0.238100782450E+03    0.17680E-04   -0.45101E-05 29392   0.300E-02    0.140E-02
DAV:   4    -0.238100778214E+03    0.42358E-05   -0.33515E-05 29216   0.215E-02    0.538E-03
DAV:   5    -0.238100777908E+03    0.30577E-06   -0.49275E-06 24928   0.969E-03
  32 F= -.23810078E+03 E0= -.23810078E+03  d E =-.201813E-03  mag=     0.0000
       N       E                     dE             d eps       ncg     rms          rms(c)
DAV:   1    -0.238100781058E+03   -0.28436E-05   -0.14694E-03 24128   0.148E-01    0.767E-03
DAV:   2    -0.238100784012E+03   -0.29538E-05   -0.44024E-05 26080   0.230E-02    0.514E-03
DAV:   3    -0.238100783402E+03    0.60959E-06   -0.12766E-06 19856   0.571E-03
  33 F= -.23810078E+03 E0= -.23810078E+03  d E =-.207306E-03  mag=     0.0000
       N       E                     dE             d eps       ncg     rms          rms(c)
DAV:   1    -0.238100814726E+03   -0.30714E-04   -0.14861E-02 23984   0.497E-01    0.352E-02
DAV:   2    -0.238100859078E+03   -0.44353E-04   -0.85848E-04 25856   0.104E-01    0.231E-02
DAV:   3    -0.238100846265E+03    0.12814E-04   -0.34820E-05 29360   0.264E-02    0.106E-02
DAV:   4    -0.238100843973E+03    0.22921E-05   -0.12714E-05 28640   0.136E-02    0.369E-03
DAV:   5    -0.238100843926E+03    0.46668E-07   -0.17863E-06 17728   0.584E-03
  34 F= -.23810084E+03 E0= -.23810084E+03  d E =-.605241E-04  mag=    -0.0000
       N       E                     dE             d eps       ncg     rms          rms(c)
DAV:   1    -0.238100846456E+03   -0.24832E-05   -0.51086E-04 24128   0.922E-02    0.642E-03
DAV:   2    -0.238100847971E+03   -0.15151E-05   -0.29530E-05 25808   0.194E-02    0.432E-03
DAV:   3    -0.238100847450E+03    0.52120E-06   -0.10493E-06 19408   0.480E-03
  35 F= -.23810085E+03 E0= -.23810085E+03  d E =-.640479E-04  mag=    -0.0000
       N       E                     dE             d eps       ncg     rms          rms(c)
DAV:   1    -0.238100871309E+03   -0.23338E-04   -0.61921E-03 24000   0.305E-01    0.127E-02
DAV:   2    -0.238100882641E+03   -0.11332E-04   -0.18313E-04 26128   0.489E-02    0.776E-03
DAV:   3    -0.238100881401E+03    0.12393E-05   -0.73226E-06 29376   0.113E-02    0.480E-03
DAV:   4    -0.238100880764E+03    0.63731E-06   -0.30281E-06 23472   0.641E-03
  36 F= -.23810088E+03 E0= -.23810088E+03  d E =-.333143E-04  mag=    -0.0000
