       N       E                     dE             d eps       ncg     rms          rms(c)
DAV:   1     0.776143469537E+03    0.77614E+03   -0.60129E+04 23936   0.135E+03
DAV:   2    -0.183688166710E+03   -0.95983E+03   -0.91493E+03 33656   0.333E+02
DAV:   3    -0.272253368460E+03   -0.88565E+02   -0.87916E+02 33672   0.108E+02
DAV:   4    -0.275056336789E+03   -0.28030E+01   -0.27932E+01 33528   0.210E+01
DAV:   5    -0.275142048377E+03   -0.85712E-01   -0.85664E-01 34360   0.367E+00    0.394E+01
DAV:   6    -0.232407354122E+03    0.42735E+02   -0.19625E+02 37504   0.490E+01    0.110E+01
DAV:   7    -0.233692499652E+03   -0.12851E+01   -0.16203E+01 35456   0.147E+01    0.683E+00
DAV:   8    -0.233538990068E+03    0.15351E+00   -0.12243E+00 37048   0.509E+00    0.378E+00
DAV:   9    -0.233499929031E+03    0.39061E-01   -0.50004E-01 30264   0.313E+00    0.819E-01
DAV:  10    -0.233496754680E+03    0.31744E-02   -0.12832E-01 36048   0.155E+00    0.452E-01
DAV:  11    -0.233495496800E+03    0.12579E-02   -0.14880E-02 33760   0.518E-01    0.232E-01
DAV:  12    -0.233496250055E+03   -0.75325E-03   -0.46933E-03 39248   0.398E-01    0.105E-01
DAV:  13    -0.233496287853E+03   -0.37798E-04   -0.13069E-03 33472   0.144E-01    0.519E-02
DAV:  14    -0.233496326029E+03   -0.38176E-04   -0.21156E-04 34592   0.705E-02    0.288E-02
DAV:  15    -0.233496335146E+03   -0.91175E-05   -0.11023E-04 36640   0.412E-02    0.112E-02
DAV:  16    -0.233496337767E+03   -0.26213E-05   -0.18578E-05 31912   0.191E-02    0.658E-03
DAV:  17    -0.233496337870E+03   -0.10263E-06   -0.49561E-06 26216   0.102E-02
   1 F= -.23349634E+03 E0= -.23349634E+03  d E =-.233496E+03  mag=     0.0002
       N       E                     dE             d eps       ncg     rms          rms(c)
DAV:   1    -0.229440234537E+03    0.40561E+01   -0.66235E+02 25840   0.113E+02    0.446E+00
DAV:   2    -0.233453153749E+03   -0.40129E+01   -0.52100E+01 28392   0.270E+01    0.365E+00
DAV:   3    -0.233171291203E+03    0.28186E+00   -0.23679E+00 34760   0.722E+00    0.241E+00
DAV:   4    -0.232994340664E+03    0.17695E+00   -0.98222E-01 38832   0.488E+00    0.879E-01
DAV:   5    -0.232987947073E+03    0.63936E-02   -0.26678E-01 30504   0.258E+00    0.803E-01
DAV:   6    -0.232982094704E+03    0.58524E-02   -0.11910E-01 28648   0.137E+00    0.465E-01
DAV:   7    -0.232980423931E+03    0.16708E-02   -0.33817E-02 33016   0.750E-01    0.170E-01
DAV:   8    -0.232979882413E+03    0.54152E-03   -0.24841E-03 30296   0.344E-01    0.911E-02
DAV:   9    -0.232979968162E+03   -0.85748E-04   -0.28526E-03 36840   0.293E-01    0.537E-02
DAV:  10    -0.232979989237E+03   -0.21075E-04   -0.81647E-04 31672   0.123E-01    0.310E-02
DAV:  11    -0.232980009627E+03   -0.20390E-04   -0.30385E-04 35472   0.646E-02    0.212E-02
DAV:  12    -0.232980009228E+03    0.39912E-06   -0.44192E-05 32560   0.313E-02    0.682E-03
DAV:  13    -0.232980011660E+03   -0.24325E-05   -0.13226E-05 35808   0.177E-02    0.451E-03
DAV:  14    -0.232980012658E+03   -0.99770E-06   -0.29682E-06 23008   0.112E-02
   2 F= -.23298001E+03 E0= -.23298001E+03  d E =0.516325E+00  mag=     0.0000
       N       E                     dE             d eps       ncg     rms          rms(c)
DAV:   1    -0.234219789118E+03   -0.12398E+01   -0.17334E+02 25520   0.583E+01    0.266E+00
DAV:   2    -0.235109682793E+03   -0.88989E+00   -0.13031E+01 33456   0.141E+01    0.207E+00
DAV:   3    -0.235035808563E+03    0.73874E-01   -0.69319E-01 30032   0.375E+00    0.138E+00
DAV:   4    -0.234988143049E+03    0.47666E-01   -0.34149E-01 37520   0.262E+00    0.539E-01
DAV:   5    -0.234983111206E+03    0.50318E-02   -0.52176E-02 30856   0.122E+00    0.375E-01
DAV:   6    -0.234983653006E+03   -0.54180E-03   -0.45162E-02 28000   0.784E-01    0.252E-01
DAV:   7    -0.234982907895E+03    0.74511E-03   -0.80092E-03 32224   0.424E-01    0.103E-01
DAV:   8    -0.234982826919E+03    0.80976E-04   -0.20262E-03 36304   0.216E-01    0.383E-02
DAV:   9    -0.234982879573E+03   -0.52655E-04   -0.61592E-04 35440   0.119E-01    0.273E-02
DAV:  10    -0.234982874500E+03    0.50733E-05   -0.12891E-04 30760   0.506E-02    0.108E-02
DAV:  11    -0.234982882465E+03   -0.79645E-05   -0.63733E-05 34768   0.297E-02    0.132E-02
DAV:  12    -0.234982879427E+03    0.30372E-05   -0.17030E-05 33216   0.181E-02    0.566E-03
DAV:  13    -0.234982879621E+03   -0.19336E-06   -0.63799E-06 26296   0.100E-02
   3 F= -.23498288E+03 E0= -.23498288E+03  d E =-.148654E+01  mag=     0.0000
       N       E                     dE             d eps       ncg     rms          rms(c)
DAV:   1    -0.234979449813E+03    0.34296E-02   -0.62923E+01 25024   0.321E+01    0.163E+00
DAV:   2    -0.235207233128E+03   -0.22778E+00   -0.32509E+00 29952   0.710E+00    0.127E+00
DAV:   3    -0.235171276550E+03    0.35957E-01   -0.12208E-01 32064   0.169E+00    0.725E-01
DAV:   4    -0.235158425975E+03    0.12851E-01   -0.89761E-02 33296   0.118E+00    0.254E-01
DAV:   5    -0.235157843761E+03    0.58221E-03   -0.17002E-02 28872   0.544E-01    0.134E-01
DAV:   6    -0.235157991072E+03   -0.14731E-03   -0.45700E-03 32912   0.262E-01    0.812E-02
DAV:   7    -0.235157951890E+03    0.39182E-04   -0.55617E-04 32736   0.104E-01    0.419E-02
DAV:   8    -0.235157955149E+03   -0.32593E-05   -0.14338E-04 30480   0.570E-02    0.211E-02
DAV:   9    -0.235157951940E+03    0.32086E-05   -0.35498E-05 33872   0.268E-02    0.865E-03
DAV:  10    -0.235157953180E+03   -0.12399E-05   -0.18005E-05 34664   0.157E-02    0.467E-03
DAV:  11    -0.235157953153E+03    0.26902E-07   -0.16885E-06 17776   0.682E-03
   4 F= -.23515795E+03 E0= -.23515795E+03  d E =-.175074E+00  mag=    -0.0000
       N       E                     dE             d eps       ncg     rms          rms(c)
DAV:   1    -0.235181568004E+03   -0.23615E-01   -0.55754E+00 25056   0.957E+00    0.484E-01
DAV:   2    -0.235200530784E+03   -0.18963E-01   -0.27486E-01 29872   0.208E+00    0.360E-01
DAV:   3    -0.235197343957E+03    0.31868E-02   -0.10595E-02 31928   0.476E-01    0.191E-01
DAV:   4    -0.235196411098E+03    0.93286E-03   -0.56322E-03 33840   0.301E-01    0.549E-02
DAV:   5    -0.235196420242E+03   -0.91444E-05   -0.10825E-03 28528   0.135E-01    0.326E-02
DAV:   6    -0.235196425521E+03   -0.52793E-05   -0.18697E-04 33424   0.606E-02    0.206E-02
DAV:   7    -0.235196423222E+03    0.22995E-05   -0.23629E-05 33408   0.214E-02    0.110E-02
DAV:   8    -0.235196422796E+03    0.42623E-06   -0.65738E-06 30384   0.133E-02
   5 F= -.23519642E+03 E0= -.23519642E+03  d E =-.213543E+00  mag=    -0.0000
       N       E                     dE             d eps       ncg     rms          rms(c)
DAV:   1    -0.235253541308E+03   -0.57118E-01   -0.14982E+01 24064   0.136E+01    0.642E-01
DAV:   2    -0.235271816681E+03   -0.18275E-01   -0.32670E-01 35312   0.285E+00    0.484E-01
DAV:   3    -0.235265569357E+03    0.62473E-02   -0.12536E-02 32144   0.557E-01    0.289E-01
DAV:   4    -0.235263342818E+03    0.22265E-02   -0.16710E-02 29904   0.513E-01    0.101E-01
DAV:   5    -0.235263329516E+03    0.13301E-04   -0.34806E-03 31936   0.273E-01    0.737E-02
DAV:   6    -0.235263304493E+03    0.25023E-04   -0.71352E-04 30680   0.101E-01    0.304E-02
DAV:   7    -0.235263294791E+03    0.97023E-05   -0.10554E-04 31712   0.484E-02    0.179E-02
DAV:   8    -0.235263297128E+03   -0.23365E-05   -0.32504E-05 32584   0.277E-02    0.774E-03
DAV:   9    -0.235263296318E+03    0.80982E-06   -0.54316E-06 27560   0.122E-02
   6 F= -.23526330E+03 E0= -.23526330E+03  d E =-.668735E-01  mag=     0.0000
       N       E                     dE             d eps       ncg     rms          rms(c)
DAV:   1    -0.235265690785E+03   -0.23937E-02   -0.10697E+00 25024   0.365E+00    0.172E-01
DAV:   2    -0.235267007426E+03   -0.13166E-02   -0.23558E-02 35376   0.769E-01    0.128E-01
DAV:   3    -0.235266560397E+03    0.44703E-03   -0.86653E-04 31680   0.148E-01    0.760E-02
DAV:   4    -0.235266411721E+03    0.14868E-03   -0.11646E-03 30224   0.135E-01    0.266E-02
DAV:   5    -0.235266410795E+03    0.92598E-06   -0.23712E-04 31560   0.706E-02    0.193E-02
DAV:   6    -0.235266409684E+03    0.11114E-05   -0.52044E-05 30576   0.275E-02    0.796E-03
DAV:   7    -0.235266409032E+03    0.65183E-06   -0.70942E-06 27080   0.128E-02
   7 F= -.23526641E+03 E0= -.23526641E+03  d E =-.699862E-01  mag=     0.0000
       N       E                     dE             d eps       ncg     rms          rms(c)
DAV:   1    -0.235260207457E+03    0.62022E-02   -0.53537E+00 25088   0.103E+01    0.465E-01
DAV:   2    -0.235286662129E+03   -0.26455E-01   -0.34355E-01 27424   0.227E+00    0.283E-01
DAV:   3    -0.235285537633E+03    0.11245E-02   -0.13687E-02 34480   0.522E-01    0.150E-01
DAV:   4    -0.235285190346E+03    0.34729E-03   -0.42409E-03 34000   0.282E-01    0.579E-02
DAV:   5    -0.235285194184E+03   -0.38387E-05   -0.78834E-04 29744   0.123E-01    0.405E-02
DAV:   6    -0.235285198629E+03   -0.44443E-05   -0.32698E-04 33640   0.660E-02    0.193E-02
DAV:   7    -0.235285195139E+03    0.34897E-05   -0.28418E-05 34000   0.291E-02    0.984E-03
DAV:   8    -0.235285196440E+03   -0.13012E-05   -0.21755E-05 36768   0.221E-02    0.602E-03
DAV:   9    -0.235285196102E+03    0.33776E-06   -0.30773E-06 21008   0.823E-03
   8 F= -.23528520E+03 E0= -.23528520E+03  d E =-.187871E-01  mag=    -0.0000
       N       E                     dE             d eps       ncg     rms          rms(c)
DAV:   1    -0.235285179733E+03    0.16707E-04   -0.19777E-02 25552   0.622E-01    0.287E-02
DAV:   2    -0.235285277220E+03   -0.97487E-04   -0.12551E-03 27160   0.137E-01    0.167E-02
DAV:   3    -0.235285274111E+03    0.31092E-05   -0.51591E-05 35280   0.311E-02    0.869E-03
DAV:   4    -0.235285273277E+03    0.83444E-06   -0.12730E-05 32912   0.156E-02    0.318E-03
DAV:   5    -0.235285273430E+03   -0.15335E-06   -0.22116E-06 18896   0.684E-03
   9 F= -.23528527E+03 E0= -.23528527E+03  d E =-.188644E-01  mag=     0.0000
       N       E                     dE             d eps       ncg     rms          rms(c)
DAV:   1    -0.235292627516E+03   -0.73542E-02   -0.32515E+00 25024   0.653E+00    0.287E-01
DAV:   2    -0.235297891006E+03   -0.52635E-02   -0.81117E-02 34816   0.131E+00    0.197E-01
DAV:   3    -0.235296942171E+03    0.94883E-03   -0.26249E-03 31392   0.256E-01    0.117E-01
DAV:   4    -0.235296593548E+03    0.34862E-03   -0.30527E-03 29168   0.195E-01    0.483E-02
DAV:   5    -0.235296576297E+03    0.17251E-04   -0.48543E-04 33888   0.111E-01    0.340E-02
DAV:   6    -0.235296570992E+03    0.53049E-05   -0.17886E-04 28160   0.495E-02    0.161E-02
DAV:   7    -0.235296570996E+03   -0.38262E-08   -0.21443E-05 34752   0.246E-02    0.899E-03
DAV:   8    -0.235296570873E+03    0.12350E-06   -0.55645E-06 29616   0.122E-02
  10 F= -.23529657E+03 E0= -.23529657E+03  d E =-.112974E-01  mag=    -0.0000
       N       E                     dE             d eps       ncg     rms          rms(c)
DAV:   1    -0.235296578761E+03   -0.77647E-05   -0.40096E-03 26176   0.230E-01    0.987E-03
DAV:   2    -0.235296586195E+03   -0.74342E-05   -0.10731E-04 34976   0.470E-02    0.723E-03
DAV:   3    -0.235296585090E+03    0.11052E-05   -0.32229E-06 23840   0.922E-03    0.454E-03
DAV:   4    -0.235296584784E+03    0.30559E-06   -0.48997E-06 25952   0.886E-03
  11 F= -.23529658E+03 E0= -.23529658E+03  d E =-.113114E-01  mag=    -0.0000
       N       E                     dE             d eps       ncg     rms          rms(c)
DAV:   1    -0.235294143023E+03    0.24421E-02   -0.21328E+00 25104   0.621E+00    0.289E-01
DAV:   2    -0.235302984690E+03   -0.88417E-02   -0.11553E-01 27360   0.129E+00    0.162E-01
DAV:   3    -0.235302577770E+03    0.40692E-03   -0.45899E-03 36256   0.289E-01    0.871E-02
DAV:   4    -0.235302425114E+03    0.15266E-03   -0.11163E-03 31248   0.134E-01    0.309E-02
DAV:   5    -0.235302430288E+03   -0.51742E-05   -0.21687E-04 34240   0.685E-02    0.209E-02
DAV:   6    -0.235302428982E+03    0.13065E-05   -0.47855E-05 35248   0.292E-02    0.108E-02
DAV:   7    -0.235302429733E+03   -0.75051E-06   -0.91228E-06 28576   0.124E-02
  12 F= -.23530243E+03 E0= -.23530243E+03  d E =-.584495E-02  mag=     0.0000
       N       E                     dE             d eps       ncg     rms          rms(c)
DAV:   1    -0.235302412812E+03    0.16170E-04   -0.10082E-02 25776   0.427E-01    0.198E-02
DAV:   2    -0.235302455550E+03   -0.42739E-04   -0.54012E-04 27520   0.897E-02    0.109E-02
DAV:   3    -0.235302453966E+03    0.15841E-05   -0.21872E-05 35008   0.200E-02    0.583E-03
DAV:   4    -0.235302453485E+03    0.48093E-06   -0.41927E-06 24704   0.873E-03
  13 F= -.23530245E+03 E0= -.23530245E+03  d E =-.586870E-02  mag=    -0.0000
       N       E                     dE             d eps       ncg     rms          rms(c)
DAV:   1    -0.235303443554E+03   -0.98959E-03   -0.72565E-01 25024   0.350E+00    0.190E-01
DAV:   2    -0.235305160118E+03   -0.17166E-02   -0.28860E-02 31200   0.739E-01    0.115E-01
DAV:   3    -0.235304860149E+03    0.29997E-03   -0.11788E-03 31760   0.160E-01    0.621E-02
DAV:   4    -0.235304780579E+03    0.79571E-04   -0.63628E-04 34528   0.997E-02    0.247E-02
DAV:   5    -0.235304773021E+03    0.75576E-05   -0.93501E-05 34592   0.464E-02    0.147E-02
DAV:   6    -0.235304772712E+03    0.30947E-06   -0.34326E-05 29376   0.214E-02    0.676E-03
DAV:   7    -0.235304772323E+03    0.38901E-06   -0.31795E-06 20848   0.113E-02
  14 F= -.23530477E+03 E0= -.23530477E+03  d E =-.231884E-02  mag=    -0.0000
       N       E                     dE             d eps       ncg     rms          rms(c)
DAV:   1    -0.235304774657E+03   -0.19453E-05   -0.26503E-03 25840   0.211E-01    0.117E-02
DAV:   2    -0.235304780931E+03   -0.62746E-05   -0.10686E-04 31520   0.444E-02    0.663E-03
DAV:   3    -0.235304779852E+03    0.10796E-05   -0.42789E-06 27120   0.966E-03    0.373E-03
DAV:   4    -0.235304779440E+03    0.41194E-06   -0.16181E-06 15728   0.712E-03
  15 F= -.23530478E+03 E0= -.23530478E+03  d E =-.232595E-02  mag=    -0.0000
       N       E                     dE             d eps       ncg     rms          rms(c)
DAV:   1    -0.235304346611E+03    0.43324E-03   -0.27066E-01 25984   0.243E+00    0.117E-01
DAV:   2    -0.235305972070E+03   -0.16255E-02   -0.20882E-02 24656   0.520E-01    0.564E-02
DAV:   3    -0.235305990435E+03   -0.18365E-04   -0.92252E-04 37088   0.118E-01    0.327E-02
DAV:   4    -0.235305978605E+03    0.11830E-04   -0.11619E-04 31488   0.447E-02    0.123E-02
DAV:   5    -0.235305978029E+03    0.57655E-06   -0.19919E-05 31296   0.230E-02    0.734E-03
DAV:   6    -0.235305978308E+03   -0.27943E-06   -0.94895E-06 31184   0.125E-02
  16 F= -.23530598E+03 E0= -.23530598E+03  d E =-.119887E-02  mag=     0.0000
       N       E                     dE             d eps       ncg     rms          rms(c)
DAV:   1    -0.235305890212E+03    0.87816E-04   -0.26623E-02 25984   0.761E-01    0.371E-02
DAV:   2    -0.235306048345E+03   -0.15813E-03   -0.20309E-03 25248   0.163E-01    0.177E-02
DAV:   3    -0.235306050135E+03   -0.17896E-05   -0.90311E-05 37200   0.368E-02    0.101E-02
DAV:   4    -0.235306048954E+03    0.11813E-05   -0.10177E-05 30784   0.134E-02    0.376E-03
DAV:   5    -0.235306048882E+03    0.71279E-07   -0.14746E-06 17472   0.687E-03
  17 F= -.23530605E+03 E0= -.23530605E+03  d E =-.126944E-02  mag=     0.0000
       N       E                     dE             d eps       ncg     rms          rms(c)
DAV:   1    -0.235306301535E+03   -0.25258E-03   -0.37783E-01 25024   0.234E+00    0.109E-01
DAV:   2    -0.235306864898E+03   -0.56336E-03   -0.97245E-03 33552   0.444E-01    0.639E-02
DAV:   3    -0.235306747608E+03    0.11729E-03   -0.39645E-04 33264   0.988E-02    0.321E-02
DAV:   4    -0.235306723964E+03    0.23644E-04   -0.20145E-04 32656   0.572E-02    0.121E-02
DAV:   5    -0.235306724424E+03   -0.46052E-06   -0.33781E-05 33888   0.268E-02    0.796E-03
DAV:   6    -0.235306724565E+03   -0.14086E-06   -0.76989E-06 29200   0.104E-02
  18 F= -.23530672E+03 E0= -.23530672E+03  d E =-.675683E-03  mag=     0.0000
       N       E                     dE             d eps       ncg     rms          rms(c)
DAV:   1    -0.235306728939E+03   -0.45147E-05   -0.36703E-03 25216   0.230E-01    0.100E-02
DAV:   2    -0.235306733974E+03   -0.50347E-05   -0.94611E-05 33584   0.438E-02    0.646E-03
DAV:   3    -0.235306732654E+03    0.13195E-05   -0.33467E-06 25408   0.939E-03    0.332E-03
DAV:   4    -0.235306732226E+03    0.42848E-06   -0.20716E-06 18176   0.713E-03
  19 F= -.23530673E+03 E0= -.23530673E+03  d E =-.683343E-03  mag=     0.0000
       N       E                     dE             d eps       ncg     rms          rms(c)
DAV:   1    -0.235306558434E+03    0.17422E-03   -0.10296E-01 25168   0.139E+00    0.582E-02
DAV:   2    -0.235307024039E+03   -0.46561E-03   -0.57623E-03 27360   0.289E-01    0.337E-02
DAV:   3    -0.235307012335E+03    0.11704E-04   -0.22712E-04 34384   0.616E-02    0.206E-02
DAV:   4    -0.235307002739E+03    0.95965E-05   -0.64562E-05 31856   0.351E-02    0.686E-03
DAV:   5    -0.235307002910E+03   -0.17139E-06   -0.15498E-05 27920   0.175E-02    0.584E-03
DAV:   6    -0.235307002566E+03    0.34367E-06   -0.35655E-06 23040   0.773E-03
  20 F= -.23530700E+03 E0= -.23530700E+03  d E =-.270340E-03  mag=     0.0000
       N       E                     dE             d eps       ncg     rms          rms(c)
DAV:   1    -0.235307002534E+03    0.37597E-06   -0.22230E-06 18560   0.797E-03    0.128E-03
DAV:   2    -0.235307002576E+03   -0.41708E-07   -0.47175E-07 14896   0.464E-03
  21 F= -.23530700E+03 E0= -.23530700E+03  d E =-.270350E-03  mag=    -0.0000
       N       E                     dE             d eps       ncg     rms          rms(c)
DAV:   1    -0.235307071492E+03   -0.68958E-04   -0.33064E-02 25056   0.669E-01    0.276E-02
DAV:   2    -0.235307132669E+03   -0.61177E-04   -0.86093E-04 34816   0.137E-01    0.204E-02
DAV:   3    -0.235307120770E+03    0.11899E-04   -0.27591E-05 30960   0.251E-02    0.107E-02
DAV:   4    -0.235307117053E+03    0.37169E-05   -0.22473E-05 36080   0.220E-02    0.378E-03
DAV:   5    -0.235307117024E+03    0.28724E-07   -0.47336E-06 22384   0.917E-03
  22 F= -.23530712E+03 E0= -.23530712E+03  d E =-.114449E-03  mag=    -0.0000
       N       E                     dE             d eps       ncg     rms          rms(c)
DAV:   1    -0.235307118308E+03   -0.12548E-05   -0.94268E-04 25744   0.113E-01    0.509E-03
DAV:   2    -0.235307120237E+03   -0.19294E-05   -0.26471E-05 34592   0.235E-02    0.362E-03
DAV:   3    -0.235307119823E+03    0.41389E-06   -0.65438E-07 16144   0.460E-03
  23 F= -.23530712E+03 E0= -.23530712E+03  d E =-.117248E-03  mag=    -0.0000
       N       E                     dE             d eps       ncg     rms          rms(c)
DAV:   1    -0.235307127116E+03   -0.68793E-05   -0.10467E-02 25056   0.404E-01    0.157E-02
DAV:   2    -0.235307157598E+03   -0.30481E-04   -0.39260E-04 31104   0.830E-02    0.113E-02
DAV:   3    -0.235307155174E+03    0.24234E-05   -0.15487E-05 32128   0.174E-02    0.700E-03
DAV:   4    -0.235307153994E+03    0.11799E-05   -0.87032E-06 32976   0.120E-02    0.262E-03
DAV:   5    -0.235307153966E+03    0.28176E-07   -0.13823E-06 17216   0.558E-03
  24 F= -.23530715E+03 E0= -.23530715E+03  d E =-.341430E-04  mag=    -0.0000
       N       E                     dE             d eps       ncg     rms          rms(c)
DAV:   1    -0.235307153999E+03   -0.45475E-08   -0.45424E-05 25088   0.269E-02    0.118E-03
DAV:   2    -0.235307154067E+03   -0.68012E-07   -0.14083E-06 18336   0.567E-03
  25 F= -.23530715E+03 E0= -.23530715E+03  d E =-.342437E-04  mag=    -0.0000
       N       E                     dE             d eps       ncg     rms          rms(c)
DAV:   1    -0.235307160412E+03   -0.64132E-05   -0.60630E-03 25056   0.288E-01    0.108E-02
DAV:   2    -0.235307172973E+03   -0.12561E-04   -0.16196E-04 32816   0.566E-02    0.738E-03
DAV:   3    -0.235307171589E+03    0.13843E-05   -0.60175E-06 30672   0.113E-02    0.407E-03
DAV:   4    -0.235307171215E+03    0.37409E-06   -0.28324E-06 21456   0.741E-03
  26 F= -.23530717E+03 E0= -.23530717E+03  d E =-.171480E-04  mag=     0.0000
