       N       E                     dE             d eps       ncg     rms          rms(c)
DAV:   1     0.262160637443E+04    0.26216E+04   -0.20298E+05  7864   0.143E+03
DAV:   2    -0.506299221496E+03   -0.31279E+04   -0.29299E+04 10520   0.333E+02
DAV:   3    -0.922062705637E+03   -0.41576E+03   -0.41190E+03 12160   0.148E+02
DAV:   4    -0.935622337289E+03   -0.13560E+02   -0.13491E+02 12408   0.366E+01
DAV:   5    -0.935927490689E+03   -0.30515E+00   -0.30419E+00 12712   0.559E+00    0.635E+01
DAV:   6    -0.786802097866E+03    0.14913E+03   -0.67121E+02 11816   0.508E+01    0.174E+01
DAV:   7    -0.788563676685E+03   -0.17616E+01   -0.54733E+01 12264   0.176E+01    0.124E+01
DAV:   8    -0.787635290566E+03    0.92839E+00   -0.63444E+00 11800   0.696E+00    0.642E+00
DAV:   9    -0.787398877730E+03    0.23641E+00   -0.15920E+00 11360   0.386E+00    0.175E+00
DAV:  10    -0.787368038583E+03    0.30839E-01   -0.61904E-01 12656   0.221E+00    0.999E-01
DAV:  11    -0.787359935509E+03    0.81031E-02   -0.14867E-01 11216   0.843E-01    0.486E-01
DAV:  12    -0.787361080699E+03   -0.11452E-02   -0.34354E-02 12000   0.580E-01    0.291E-01
DAV:  13    -0.787362223785E+03   -0.11431E-02   -0.90124E-03 11728   0.244E-01    0.124E-01
DAV:  14    -0.787362993797E+03   -0.77001E-03   -0.41628E-03 12000   0.185E-01    0.867E-02
DAV:  15    -0.787362952464E+03    0.41333E-04   -0.10048E-03  9880   0.923E-02    0.451E-02
DAV:  16    -0.787362967361E+03   -0.14898E-04   -0.44596E-04  7160   0.567E-02
   1 F= -.78736297E+03 E0= -.78736297E+03  d E =-.787363E+03
       N       E                     dE             d eps       ncg     rms          rms(c)
DAV:   1    -0.787407371371E+03   -0.44419E-01   -0.16200E+03  8176   0.915E+01    0.741E+00
DAV:   2    -0.792870505453E+03   -0.54631E+01   -0.80715E+01 11192   0.256E+01    0.672E+00
DAV:   3    -0.791916787520E+03    0.95372E+00   -0.41589E+00 12536   0.690E+00    0.456E+00
DAV:   4    -0.791154013191E+03    0.76277E+00   -0.24331E+00 11376   0.454E+00    0.172E+00
DAV:   5    -0.791159944908E+03   -0.59317E-02   -0.12475E+00 11528   0.291E+00    0.157E+00
DAV:   6    -0.791140379506E+03    0.19565E-01   -0.39017E-01 11504   0.149E+00    0.884E-01
DAV:   7    -0.791132208672E+03    0.81708E-02   -0.12678E-01 11696   0.819E-01    0.336E-01
DAV:   8    -0.791130821679E+03    0.13870E-02   -0.19272E-02 11880   0.387E-01    0.205E-01
DAV:   9    -0.791130456625E+03    0.36505E-03   -0.92879E-03 13912   0.308E-01    0.126E-01
DAV:  10    -0.791130484253E+03   -0.27628E-04   -0.30573E-03  9376   0.135E-01    0.830E-02
DAV:  11    -0.791130440137E+03    0.44117E-04   -0.10513E-03 10960   0.720E-02    0.397E-02
DAV:  12    -0.791130424924E+03    0.15213E-04   -0.77741E-05  5448   0.321E-02
   2 F= -.79113042E+03 E0= -.79113042E+03  d E =-.376746E+01
       N       E                     dE             d eps       ncg     rms          rms(c)
DAV:   1    -0.792798234964E+03   -0.16678E+01   -0.23261E+02  8072   0.349E+01    0.309E+00
DAV:   2    -0.793485244481E+03   -0.68701E+00   -0.11528E+01 11232   0.969E+00    0.241E+00
DAV:   3    -0.793350232948E+03    0.13501E+00   -0.76226E-01 12104   0.288E+00    0.161E+00
DAV:   4    -0.793263758380E+03    0.86475E-01   -0.26985E-01 11648   0.145E+00    0.632E-01
DAV:   5    -0.793251509604E+03    0.12249E-01   -0.91132E-02 11696   0.979E-01    0.402E-01
DAV:   6    -0.793252422590E+03   -0.91299E-03   -0.60765E-02 11168   0.564E-01    0.276E-01
DAV:   7    -0.793251976304E+03    0.44629E-03   -0.15808E-02 11672   0.295E-01    0.147E-01
DAV:   8    -0.793251567263E+03    0.40904E-03   -0.12231E-03 11496   0.124E-01    0.835E-02
DAV:   9    -0.793251533551E+03    0.33713E-04   -0.16622E-03 11496   0.968E-02    0.363E-02
DAV:  10    -0.793251523318E+03    0.10232E-04   -0.19093E-04  6040   0.511E-02
   3 F= -.79325152E+03 E0= -.79325152E+03  d E =-.588856E+01
       N       E                     dE             d eps       ncg     rms          rms(c)
DAV:   1    -0.792789322168E+03    0.46221E+00   -0.22575E+02  8096   0.361E+01    0.281E+00
DAV:   2    -0.794003039497E+03   -0.12137E+01   -0.14993E+01 11016   0.974E+00    0.202E+00
DAV:   3    -0.793951614412E+03    0.51425E-01   -0.56107E-01 12272   0.254E+00    0.141E+00
DAV:   4    -0.793905533240E+03    0.46081E-01   -0.28771E-01 12048   0.143E+00    0.536E-01
DAV:   5    -0.793905036819E+03    0.49642E-03   -0.71844E-02 11560   0.758E-01    0.443E-01
DAV:   6    -0.793902978226E+03    0.20586E-02   -0.28793E-02 11552   0.408E-01    0.194E-01
DAV:   7    -0.793903299202E+03   -0.32098E-03   -0.86002E-03 11808   0.236E-01    0.998E-02
DAV:   8    -0.793903361709E+03   -0.62507E-04   -0.11736E-03 10608   0.110E-01    0.449E-02
DAV:   9    -0.793903378758E+03   -0.17049E-04   -0.18580E-04  5856   0.604E-02
   4 F= -.79390338E+03 E0= -.79390338E+03  d E =-.651855E+00
       N       E                     dE             d eps       ncg     rms          rms(c)
DAV:   1    -0.793902299781E+03    0.10619E-02   -0.10725E+01  8192   0.787E+00    0.601E-01
DAV:   2    -0.793961317779E+03   -0.59018E-01   -0.72355E-01 11000   0.208E+00    0.452E-01
DAV:   3    -0.793958663752E+03    0.26540E-02   -0.26881E-02 12072   0.569E-01    0.320E-01
DAV:   4    -0.793956218642E+03    0.24451E-02   -0.14559E-02 11920   0.319E-01    0.116E-01
DAV:   5    -0.793956226262E+03   -0.76201E-05   -0.39149E-03 11464   0.169E-01    0.100E-01
DAV:   6    -0.793956106362E+03    0.11990E-03   -0.13447E-03 10984   0.909E-02    0.448E-02
DAV:   7    -0.793956106866E+03   -0.50421E-06   -0.35981E-04  6736   0.539E-02
   5 F= -.79395611E+03 E0= -.79395611E+03  d E =-.704584E+00
       N       E                     dE             d eps       ncg     rms          rms(c)
DAV:   1    -0.793776526490E+03    0.17958E+00   -0.11657E+02  8216   0.256E+01    0.200E+00
DAV:   2    -0.794347099384E+03   -0.57057E+00   -0.70948E+00 10656   0.660E+00    0.127E+00
DAV:   3    -0.794322062460E+03    0.25037E-01   -0.27982E-01 12376   0.174E+00    0.875E-01
DAV:   4    -0.794300328330E+03    0.21734E-01   -0.10621E-01 11872   0.926E-01    0.311E-01
DAV:   5    -0.794301195339E+03   -0.86701E-03   -0.37011E-02 11064   0.502E-01    0.291E-01
DAV:   6    -0.794300253134E+03    0.94221E-03   -0.98668E-03 11832   0.248E-01    0.141E-01
DAV:   7    -0.794300196644E+03    0.56489E-04   -0.35297E-03 11784   0.153E-01    0.546E-02
DAV:   8    -0.794300203128E+03   -0.64843E-05   -0.30698E-04  6384   0.708E-02
   6 F= -.79430020E+03 E0= -.79430020E+03  d E =-.344096E+00
       N       E                     dE             d eps       ncg     rms          rms(c)
DAV:   1    -0.794300183452E+03    0.13192E-04   -0.77884E-02  8664   0.667E-01    0.570E-02
DAV:   2    -0.794300562650E+03   -0.37920E-03   -0.49938E-03 10624   0.174E-01    0.364E-02
DAV:   3    -0.794300536954E+03    0.25696E-04   -0.19241E-04  6520   0.513E-02
   7 F= -.79430054E+03 E0= -.79430054E+03  d E =-.344430E+00
       N       E                     dE             d eps       ncg     rms          rms(c)
DAV:   1    -0.794246906136E+03    0.53657E-01   -0.43938E+01  8224   0.157E+01    0.120E+00
DAV:   2    -0.794464332651E+03   -0.21743E+00   -0.26785E+00 10712   0.403E+00    0.770E-01
DAV:   3    -0.794455637934E+03    0.86947E-02   -0.97986E-02 12160   0.106E+00    0.505E-01
DAV:   4    -0.794448723245E+03    0.69147E-02   -0.39296E-02 11616   0.558E-01    0.180E-01
DAV:   5    -0.794449054766E+03   -0.33152E-03   -0.12800E-02 11240   0.296E-01    0.167E-01
DAV:   6    -0.794448774369E+03    0.28040E-03   -0.28899E-03 11752   0.132E-01    0.844E-02
DAV:   7    -0.794448736464E+03    0.37906E-04   -0.77899E-04 10296   0.732E-02
   8 F= -.79444874E+03 E0= -.79444874E+03  d E =-.148200E+00
       N       E                     dE             d eps       ncg     rms          rms(c)
DAV:   1    -0.794447433225E+03    0.13411E-02   -0.56646E-01  8448   0.179E+00    0.141E-01
DAV:   2    -0.794450413541E+03   -0.29803E-02   -0.36430E-02 10744   0.468E-01    0.922E-02
DAV:   3    -0.794450292933E+03    0.12061E-03   -0.13181E-03 10968   0.126E-01    0.608E-02
DAV:   4    -0.794450198596E+03    0.94337E-04   -0.58524E-04  8720   0.713E-02
   9 F= -.79445020E+03 E0= -.79445020E+03  d E =-.149662E+00
       N       E                     dE             d eps       ncg     rms          rms(c)
DAV:   1    -0.794427838811E+03    0.22454E-01   -0.24834E+01  8128   0.116E+01    0.807E-01
DAV:   2    -0.794536852154E+03   -0.10901E+00   -0.13098E+00 11016   0.302E+00    0.526E-01
DAV:   3    -0.794533456297E+03    0.33959E-02   -0.50214E-02 12424   0.767E-01    0.362E-01
DAV:   4    -0.794530111998E+03    0.33443E-02   -0.17534E-02 11520   0.368E-01    0.134E-01
DAV:   5    -0.794530273829E+03   -0.16183E-03   -0.60376E-03 11664   0.206E-01    0.120E-01
DAV:   6    -0.794530117042E+03    0.15679E-03   -0.14528E-03 11896   0.972E-02    0.582E-02
DAV:   7    -0.794530093872E+03    0.23170E-04   -0.33764E-04  6616   0.581E-02
  10 F= -.79453009E+03 E0= -.79453009E+03  d E =-.798953E-01
       N       E                     dE             d eps       ncg     rms          rms(c)
DAV:   1    -0.794529541395E+03    0.57565E-03   -0.49803E-01  8296   0.165E+00    0.116E-01
DAV:   2    -0.794531856580E+03   -0.23152E-02   -0.27525E-02 11024   0.440E-01    0.821E-02
DAV:   3    -0.794531758696E+03    0.97884E-04   -0.94928E-04  9832   0.112E-01
  11 F= -.79453176E+03 E0= -.79453176E+03  d E =-.815601E-01
       N       E                     dE             d eps       ncg     rms          rms(c)
DAV:   1    -0.794517935653E+03    0.13921E-01   -0.13634E+01  8080   0.860E+00    0.591E-01
DAV:   2    -0.794575706367E+03   -0.57771E-01   -0.68699E-01 11016   0.222E+00    0.383E-01
DAV:   3    -0.794573772528E+03    0.19338E-02   -0.24425E-02 12336   0.567E-01    0.265E-01
DAV:   4    -0.794571891147E+03    0.18814E-02   -0.11209E-02 11936   0.311E-01    0.901E-02
DAV:   5    -0.794572133355E+03   -0.24221E-03   -0.41284E-03 11080   0.158E-01    0.957E-02
DAV:   6    -0.794572030526E+03    0.10283E-03   -0.53382E-04  8104   0.667E-02    0.574E-02
DAV:   7    -0.794572008267E+03    0.22258E-04   -0.52091E-04  7920   0.600E-02
  12 F= -.79457201E+03 E0= -.79457201E+03  d E =-.402496E-01
       N       E                     dE             d eps       ncg     rms          rms(c)
DAV:   1    -0.794571231062E+03    0.79946E-03   -0.31412E-01  8264   0.131E+00    0.903E-02
DAV:   2    -0.794572652716E+03   -0.14217E-02   -0.16447E-02 11024   0.342E-01    0.644E-02
DAV:   3    -0.794572590138E+03    0.62578E-04   -0.47244E-04  8296   0.877E-02
  13 F= -.79457259E+03 E0= -.79457259E+03  d E =-.408314E-01
       N       E                     dE             d eps       ncg     rms          rms(c)
DAV:   1    -0.794539417838E+03    0.33235E-01   -0.12248E+01  8176   0.830E+00    0.596E-01
DAV:   2    -0.794599931877E+03   -0.60514E-01   -0.71830E-01 10976   0.212E+00    0.343E-01
DAV:   3    -0.794598637297E+03    0.12946E-02   -0.24363E-02 12200   0.530E-01    0.229E-01
DAV:   4    -0.794597263205E+03    0.13741E-02   -0.79987E-03 11488   0.268E-01    0.773E-02
DAV:   5    -0.794597462906E+03   -0.19970E-03   -0.31741E-03 10912   0.138E-01    0.836E-02
DAV:   6    -0.794597374454E+03    0.88452E-04   -0.33106E-04  6608   0.570E-02
  14 F= -.79459737E+03 E0= -.79459737E+03  d E =-.247843E-01
       N       E                     dE             d eps       ncg     rms          rms(c)
DAV:   1    -0.794597091267E+03    0.37164E-03   -0.85832E-02  8472   0.700E-01    0.544E-02
DAV:   2    -0.794597586457E+03   -0.49519E-03   -0.56944E-03 10928   0.184E-01    0.418E-02
DAV:   3    -0.794597559866E+03    0.26590E-04   -0.14366E-04  6672   0.518E-02
  15 F= -.79459756E+03 E0= -.79459756E+03  d E =-.249697E-01
       N       E                     dE             d eps       ncg     rms          rms(c)
DAV:   1    -0.794591492417E+03    0.60940E-02   -0.43823E+00  8000   0.489E+00    0.338E-01
DAV:   2    -0.794611252955E+03   -0.19761E-01   -0.23499E-01 11008   0.125E+00    0.219E-01
DAV:   3    -0.794610596135E+03    0.65682E-03   -0.78555E-03 12280   0.313E-01    0.148E-01
DAV:   4    -0.794609984911E+03    0.61122E-03   -0.33841E-03 11496   0.163E-01    0.509E-02
DAV:   5    -0.794610039777E+03   -0.54867E-04   -0.11451E-03  9280   0.852E-02    0.504E-02
DAV:   6    -0.794610004553E+03    0.35224E-04   -0.14510E-04  5328   0.394E-02
  16 F= -.79461000E+03 E0= -.79461000E+03  d E =-.124447E-01
       N       E                     dE             d eps       ncg     rms          rms(c)
DAV:   1    -0.794609919758E+03    0.12002E-03   -0.45387E-02  8256   0.503E-01    0.373E-02
DAV:   2    -0.794610168007E+03   -0.24825E-03   -0.28517E-03 11032   0.128E-01    0.320E-02
DAV:   3    -0.794610150967E+03    0.17040E-04   -0.65038E-05  6152   0.363E-02
  17 F= -.79461015E+03 E0= -.79461015E+03  d E =-.125911E-01
       N       E                     dE             d eps       ncg     rms          rms(c)
DAV:   1    -0.794601033358E+03    0.91346E-02   -0.26756E+00  8328   0.400E+00    0.288E-01
DAV:   2    -0.794617020432E+03   -0.15987E-01   -0.18888E-01 10488   0.101E+00    0.163E-01
DAV:   3    -0.794616942008E+03    0.78424E-04   -0.68881E-03 12400   0.256E-01    0.113E-01
DAV:   4    -0.794616658537E+03    0.28347E-03   -0.14844E-03 11336   0.103E-01    0.418E-02
DAV:   5    -0.794616658103E+03    0.43401E-06   -0.35136E-04  7040   0.566E-02
  18 F= -.79461666E+03 E0= -.79461666E+03  d E =-.650714E-02
       N       E                     dE             d eps       ncg     rms          rms(c)
DAV:   1    -0.794616651127E+03    0.74106E-05   -0.84879E-05  5248   0.433E-02    0.141E-02
DAV:   2    -0.794616653805E+03   -0.26783E-05   -0.67522E-05  4872   0.351E-02
  19 F= -.79461665E+03 E0= -.79461665E+03  d E =-.650284E-02
       N       E                     dE             d eps       ncg     rms          rms(c)
DAV:   1    -0.794614221693E+03    0.24294E-02   -0.17799E+00  7976   0.306E+00    0.215E-01
DAV:   2    -0.794621080468E+03   -0.68588E-02   -0.83639E-02 11048   0.776E-01    0.134E-01
DAV:   3    -0.794620841571E+03    0.23890E-03   -0.29782E-03 12272   0.188E-01    0.860E-02
DAV:   4    -0.794620669300E+03    0.17227E-03   -0.11060E-03 11416   0.920E-02    0.327E-02
DAV:   5    -0.794620673483E+03   -0.41837E-05   -0.26815E-04  6472   0.474E-02
  20 F= -.79462067E+03 E0= -.79462067E+03  d E =-.401968E-02
       N       E                     dE             d eps       ncg     rms          rms(c)
DAV:   1    -0.794620675353E+03   -0.60536E-05   -0.13058E-03  8176   0.895E-02    0.148E-02
DAV:   2    -0.794620681578E+03   -0.62246E-05   -0.81710E-05  5208   0.249E-02
  21 F= -.79462068E+03 E0= -.79462068E+03  d E =-.402777E-02
       N       E                     dE             d eps       ncg     rms          rms(c)
DAV:   1    -0.794616998661E+03    0.36767E-02   -0.10072E+00  8400   0.248E+00    0.196E-01
DAV:   2    -0.794623692644E+03   -0.66940E-02   -0.79788E-02 10344   0.639E-01    0.105E-01
DAV:   3    -0.794623686894E+03    0.57505E-05   -0.28406E-03 11984   0.156E-01    0.701E-02
DAV:   4    -0.794623580571E+03    0.10632E-03   -0.56713E-04  8952   0.680E-02    0.225E-02
DAV:   5    -0.794623589068E+03   -0.84972E-05   -0.17027E-04  5832   0.394E-02
  22 F= -.79462359E+03 E0= -.79462359E+03  d E =-.290749E-02
       N       E                     dE             d eps       ncg     rms          rms(c)
DAV:   1    -0.794623522209E+03    0.58362E-04   -0.15045E-02  8408   0.306E-01    0.279E-02
DAV:   2    -0.794623629082E+03   -0.10687E-03   -0.12672E-03  9272   0.778E-02    0.134E-02
DAV:   3    -0.794623630787E+03   -0.17047E-05   -0.46608E-05  5808   0.211E-02
  23 F= -.79462363E+03 E0= -.79462363E+03  d E =-.294921E-02
       N       E                     dE             d eps       ncg     rms          rms(c)
DAV:   1    -0.794622060989E+03    0.15681E-02   -0.88479E-01  8080   0.217E+00    0.150E-01
DAV:   2    -0.794625581579E+03   -0.35206E-02   -0.42085E-02 11096   0.560E-01    0.970E-02
DAV:   3    -0.794625439045E+03    0.14253E-03   -0.14761E-03 11088   0.139E-01    0.629E-02
DAV:   4    -0.794625320980E+03    0.11806E-03   -0.65075E-04  9432   0.759E-02    0.209E-02
DAV:   5    -0.794625332962E+03   -0.11982E-04   -0.21618E-04  5968   0.422E-02
  24 F= -.79462533E+03 E0= -.79462533E+03  d E =-.170217E-02
       N       E                     dE             d eps       ncg     rms          rms(c)
DAV:   1    -0.794625328702E+03   -0.77218E-05   -0.80289E-04  8184   0.739E-02    0.109E-02
DAV:   2    -0.794625330235E+03   -0.15327E-05   -0.45396E-05  4760   0.198E-02
  25 F= -.79462533E+03 E0= -.79462533E+03  d E =-.169945E-02
       N       E                     dE             d eps       ncg     rms          rms(c)
DAV:   1    -0.794623728045E+03    0.16007E-02   -0.55866E-01  8144   0.174E+00    0.123E-01
DAV:   2    -0.794626496240E+03   -0.27682E-02   -0.31980E-02 11072   0.450E-01    0.762E-02
DAV:   3    -0.794626435651E+03    0.60589E-04   -0.96561E-04  9512   0.107E-01
  26 F= -.79462644E+03 E0= -.79462644E+03  d E =-.110542E-02
       N       E                     dE             d eps       ncg     rms          rms(c)
DAV:   1    -0.794626355675E+03    0.14056E-03   -0.41998E-03  8664   0.157E-01    0.194E-02
DAV:   2    -0.794626368670E+03   -0.12995E-04   -0.22743E-04  5912   0.414E-02
  27 F= -.79462637E+03 E0= -.79462637E+03  d E =-.103844E-02
       N       E                     dE             d eps       ncg     rms          rms(c)
DAV:   1    -0.794626373745E+03   -0.18069E-04   -0.22825E-03  8032   0.117E-01    0.770E-03
DAV:   2    -0.794626383634E+03   -0.98891E-05   -0.11666E-04  4976   0.273E-02
  28 F= -.79462638E+03 E0= -.79462638E+03  d E =-.105340E-02
       N       E                     dE             d eps       ncg     rms          rms(c)
DAV:   1    -0.794625477555E+03    0.89619E-03   -0.42464E-01  8088   0.147E+00    0.924E-02
DAV:   2    -0.794627183455E+03   -0.17059E-02   -0.19436E-02 11136   0.372E-01    0.591E-02
DAV:   3    -0.794627136015E+03    0.47440E-04   -0.58277E-04  8688   0.875E-02
  29 F= -.79462714E+03 E0= -.79462714E+03  d E =-.752381E-03
       N       E                     dE             d eps       ncg     rms          rms(c)
DAV:   1    -0.794626878961E+03    0.30449E-03   -0.56637E-02  8280   0.540E-01    0.382E-02
DAV:   2    -0.794627094985E+03   -0.21602E-03   -0.25536E-03 11096   0.132E-01    0.215E-02
DAV:   3    -0.794627091174E+03    0.38113E-05   -0.80008E-05  6480   0.344E-02
  30 F= -.79462709E+03 E0= -.79462709E+03  d E =-.707540E-03
       N       E                     dE             d eps       ncg     rms          rms(c)
DAV:   1    -0.794625598343E+03    0.14966E-02   -0.49201E-01  8104   0.158E+00    0.104E-01
DAV:   2    -0.794627601452E+03   -0.20031E-02   -0.23287E-02 11032   0.400E-01    0.644E-02
DAV:   3    -0.794627536767E+03    0.64685E-04   -0.74060E-04  9096   0.951E-02
  31 F= -.79462754E+03 E0= -.79462754E+03  d E =-.445593E-03
       N       E                     dE             d eps       ncg     rms          rms(c)
DAV:   1    -0.794627473067E+03    0.12838E-03   -0.28781E-04  7272   0.608E-02    0.105E-02
DAV:   2    -0.794627484172E+03   -0.11105E-04   -0.13059E-04  5104   0.458E-02
  32 F= -.79462748E+03 E0= -.79462748E+03  d E =-.392998E-03
       N       E                     dE             d eps       ncg     rms          rms(c)
DAV:   1    -0.794627487038E+03   -0.13971E-04   -0.21205E-04  5440   0.460E-02    0.806E-03
DAV:   2    -0.794627490161E+03   -0.31230E-05   -0.46308E-05  4528   0.347E-02
  33 F= -.79462749E+03 E0= -.79462749E+03  d E =-.398987E-03
       N       E                     dE             d eps       ncg     rms          rms(c)
DAV:   1    -0.794627489821E+03   -0.27834E-05   -0.32704E-05  4352   0.204E-02    0.333E-03
DAV:   2    -0.794627490487E+03   -0.66543E-06   -0.98684E-06  4256   0.161E-02
  34 F= -.79462749E+03 E0= -.79462749E+03  d E =-.399313E-03
       N       E                     dE             d eps       ncg     rms          rms(c)
DAV:   1    -0.794627491308E+03   -0.14867E-05   -0.97331E-06  4256   0.106E-02    0.116E-03
DAV:   2    -0.794627491587E+03   -0.27881E-06   -0.31373E-06  4256   0.986E-03
  35 F= -.79462749E+03 E0= -.79462749E+03  d E =-.400413E-03
       N       E                     dE             d eps       ncg     rms          rms(c)
DAV:   1    -0.794627000080E+03    0.49123E-03   -0.25145E-01  8072   0.111E+00    0.691E-02
DAV:   2    -0.794627853802E+03   -0.85372E-03   -0.99453E-03 11040   0.280E-01    0.476E-02
DAV:   3    -0.794627810486E+03    0.43315E-04   -0.28801E-04  7424   0.676E-02
  36 F= -.79462781E+03 E0= -.79462781E+03  d E =-.318899E-03
       N       E                     dE             d eps       ncg     rms          rms(c)
DAV:   1    -0.794627776718E+03    0.77083E-04   -0.40091E-04  7816   0.568E-02    0.986E-03
DAV:   2    -0.794627780267E+03   -0.35491E-05   -0.63048E-05  4584   0.319E-02
  37 F= -.79462778E+03 E0= -.79462778E+03  d E =-.288681E-03
       N       E                     dE             d eps       ncg     rms          rms(c)
DAV:   1    -0.794627784504E+03   -0.77852E-05   -0.31125E-04  5896   0.462E-02    0.378E-03
DAV:   2    -0.794627786763E+03   -0.22596E-05   -0.25252E-05  4256   0.224E-02
  38 F= -.79462779E+03 E0= -.79462779E+03  d E =-.295177E-03
       N       E                     dE             d eps       ncg     rms          rms(c)
DAV:   1    -0.794627506835E+03    0.27767E-03   -0.13052E-01  8104   0.820E-01    0.540E-02
DAV:   2    -0.794628018139E+03   -0.51130E-03   -0.59277E-03 11136   0.210E-01    0.349E-02
DAV:   3    -0.794627993798E+03    0.24341E-04   -0.14841E-04  6760   0.504E-02
  39 F= -.79462799E+03 E0= -.79462799E+03  d E =-.207035E-03
       N       E                     dE             d eps       ncg     rms          rms(c)
DAV:   1    -0.794627971269E+03    0.46870E-04   -0.15485E-03  8544   0.943E-02    0.950E-03
DAV:   2    -0.794627976375E+03   -0.51063E-05   -0.71736E-05  4824   0.245E-02
  40 F= -.79462798E+03 E0= -.79462798E+03  d E =-.189612E-03
       N       E                     dE             d eps       ncg     rms          rms(c)
DAV:   1    -0.794627981022E+03   -0.97532E-05   -0.10207E-03  7744   0.766E-02    0.448E-03
DAV:   2    -0.794627984175E+03   -0.31532E-05   -0.38487E-05  4304   0.164E-02
  41 F= -.79462798E+03 E0= -.79462798E+03  d E =-.197412E-03
       N       E                     dE             d eps       ncg     rms          rms(c)
DAV:   1    -0.794627939947E+03    0.41075E-04   -0.46754E-02  8096   0.485E-01    0.343E-02
DAV:   2    -0.794628117300E+03   -0.17735E-03   -0.21355E-03 11008   0.129E-01    0.237E-02
DAV:   3    -0.794628104248E+03    0.13053E-04   -0.53606E-05  5488   0.326E-02
  42 F= -.79462810E+03 E0= -.79462810E+03  d E =-.120072E-03
       N       E                     dE             d eps       ncg     rms          rms(c)
DAV:   1    -0.794628094422E+03    0.22879E-04   -0.57396E-04  8232   0.570E-02    0.652E-03
DAV:   2    -0.794628095750E+03   -0.13285E-05   -0.26821E-05  4256   0.168E-02
  43 F= -.79462810E+03 E0= -.79462810E+03  d E =-.111575E-03
       N       E                     dE             d eps       ncg     rms          rms(c)
DAV:   1    -0.794628096311E+03   -0.18898E-05   -0.32466E-04  5800   0.450E-02    0.272E-03
DAV:   2    -0.794628098636E+03   -0.23244E-05   -0.24426E-05  4232   0.227E-02
  44 F= -.79462810E+03 E0= -.79462810E+03  d E =-.114460E-03
       N       E                     dE             d eps       ncg     rms          rms(c)
DAV:   1    -0.794628097254E+03   -0.94259E-06   -0.60169E-05  4336   0.204E-02    0.223E-03
DAV:   2    -0.794628098016E+03   -0.76243E-06   -0.93717E-06  4232   0.165E-02
  45 F= -.79462810E+03 E0= -.79462810E+03  d E =-.113841E-03
       N       E                     dE             d eps       ncg     rms          rms(c)
DAV:   1    -0.794628098707E+03   -0.14529E-05   -0.22368E-05  4264   0.120E-02    0.112E-03
DAV:   2    -0.794628098981E+03   -0.27406E-06   -0.26976E-06  4208   0.926E-03
  46 F= -.79462810E+03 E0= -.79462810E+03  d E =-.114806E-03
       N       E                     dE             d eps       ncg     rms          rms(c)
DAV:   1    -0.794628030911E+03    0.67796E-04   -0.39060E-02  8128   0.450E-01    0.290E-02
DAV:   2    -0.794628177497E+03   -0.14659E-03   -0.17295E-03 10640   0.115E-01    0.194E-02
DAV:   3    -0.794628169458E+03    0.80395E-05   -0.42574E-05  4736   0.295E-02
  47 F= -.79462817E+03 E0= -.79462817E+03  d E =-.704771E-04
       N       E                     dE             d eps       ncg     rms          rms(c)
DAV:   1    -0.794628162882E+03    0.14616E-04   -0.48720E-05  4296   0.268E-02    0.381E-03
DAV:   2    -0.794628164645E+03   -0.17628E-05   -0.22370E-05  4152   0.244E-02
  48 F= -.79462816E+03 E0= -.79462816E+03  d E =-.656639E-04
       N       E                     dE             d eps       ncg     rms          rms(c)
DAV:   1    -0.794628165568E+03   -0.26864E-05   -0.31616E-05  4152   0.184E-02    0.235E-03
DAV:   2    -0.794628166248E+03   -0.68010E-06   -0.82030E-06  4136   0.167E-02
  49 F= -.79462817E+03 E0= -.79462817E+03  d E =-.672676E-04
       N       E                     dE             d eps       ncg     rms          rms(c)
DAV:   1    -0.794628166098E+03   -0.52955E-06   -0.60493E-06  4112   0.793E-03    0.145E-03
DAV:   2    -0.794628166204E+03   -0.10585E-06   -0.15938E-06  4112   0.692E-03
  50 F= -.79462817E+03 E0= -.79462817E+03  d E =-.672229E-04
       N       E                     dE             d eps       ncg     rms          rms(c)
DAV:   1    -0.794628166427E+03   -0.32946E-06   -0.17027E-06  4112   0.419E-03    0.455E-04
DAV:   2    -0.794628166468E+03   -0.41146E-07   -0.48440E-07  4112   0.398E-03
  51 F= -.79462817E+03 E0= -.79462817E+03  d E =-.674877E-04
       N       E                     dE             d eps       ncg     rms          rms(c)
DAV:   1    -0.794628159295E+03    0.71323E-05   -0.18038E-02  8120   0.296E-01    0.205E-02
DAV:   2    -0.794628199360E+03   -0.40065E-04   -0.52599E-04  7384   0.763E-02
  52 F= -.79462820E+03 E0= -.79462820E+03  d E =-.328917E-04
