       N       E                     dE             d eps       ncg     rms          rms(c)
DAV:   1     0.113696983239E+04    0.11370E+04   -0.67406E+04 45240   0.138E+03
DAV:   2    -0.154641655026E+03   -0.12916E+04   -0.12526E+04 50232   0.342E+02
DAV:   3    -0.290544449434E+03   -0.13590E+03   -0.13362E+03 53184   0.117E+02
DAV:   4    -0.297205392966E+03   -0.66609E+01   -0.66272E+01 61848   0.336E+01
DAV:   5    -0.297328671392E+03   -0.12328E+00   -0.12298E+00 54856   0.430E+00    0.483E+01
DAV:   6    -0.263994741640E+03    0.33334E+02   -0.47352E+02 61888   0.853E+01    0.866E+01
DAV:   7    -0.237407328500E+03    0.26587E+02   -0.36518E+02 62832   0.166E+02    0.243E+01
DAV:   8    -0.232672931966E+03    0.47344E+01   -0.49771E+01 55624   0.217E+01    0.195E+01
DAV:   9    -0.225272333488E+03    0.74006E+01   -0.85270E+00 60400   0.178E+01    0.794E+00
DAV:  10    -0.225470678840E+03   -0.19835E+00   -0.14706E+01 59760   0.104E+01    0.157E+01
DAV:  11    -0.224740416407E+03    0.73026E+00   -0.35320E+00 59216   0.663E+00    0.803E+00
DAV:  12    -0.224516919177E+03    0.22350E+00   -0.10826E+00 59080   0.352E+00    0.437E+00
DAV:  13    -0.224547205470E+03   -0.30286E-01   -0.22753E+00 60904   0.455E+00    0.400E+00
DAV:  14    -0.224479185732E+03    0.68020E-01   -0.32913E-01 60728   0.329E+00    0.388E+00
DAV:  15    -0.224390341117E+03    0.88845E-01   -0.92925E-02 61040   0.198E+00    0.295E+00
DAV:  16    -0.224336269468E+03    0.54072E-01   -0.20861E-01 60976   0.111E+00    0.118E+00
DAV:  17    -0.224338882558E+03   -0.26131E-02   -0.12075E-01 58672   0.648E-01    0.158E+00
DAV:  18    -0.224336740582E+03    0.21420E-02   -0.68833E-03 49272   0.252E-01    0.148E+00
DAV:  19    -0.224331946982E+03    0.47936E-02   -0.22780E-02 58944   0.221E-01    0.821E-01
DAV:  20    -0.224335800762E+03   -0.38538E-02   -0.51960E-02 59128   0.783E-01    0.915E-01
DAV:  21    -0.224332568744E+03    0.32320E-02   -0.36932E-02 59008   0.396E-01    0.362E-01
DAV:  22    -0.224333661966E+03   -0.10932E-02   -0.38553E-03 58552   0.132E-01    0.388E-01
DAV:  23    -0.224333024026E+03    0.63794E-03   -0.15391E-03 59384   0.807E-02    0.322E-01
DAV:  24    -0.224334521212E+03   -0.14972E-02   -0.12925E-02 62872   0.184E-01    0.762E-01
DAV:  25    -0.224334578281E+03   -0.57070E-04   -0.81253E-04 53584   0.815E-02    0.719E-01
DAV:  26    -0.224334756050E+03   -0.17777E-03   -0.12066E-04 57880   0.340E-02    0.764E-01
DAV:  27    -0.224335585909E+03   -0.82986E-03   -0.18622E-03 56864   0.133E-01    0.828E-01
DAV:  28    -0.224333277606E+03    0.23083E-02   -0.16598E-02 61592   0.210E-01    0.156E-01
DAV:  29    -0.224333370070E+03   -0.92464E-04   -0.21040E-03 59960   0.137E-01    0.138E-01
DAV:  30    -0.224333370333E+03   -0.26311E-06   -0.21717E-04 56080   0.594E-02    0.120E-01
DAV:  31    -0.224333307839E+03    0.62494E-04   -0.15560E-04 57704   0.243E-02    0.600E-02
DAV:  32    -0.224333279003E+03    0.28835E-04   -0.13636E-04 56992   0.184E-02    0.999E-03
DAV:  33    -0.224333281939E+03   -0.29357E-05   -0.58495E-06 46464   0.985E-03    0.431E-03
DAV:  34    -0.224333282787E+03   -0.84763E-06   -0.22355E-06 27336   0.462E-03
   1 F= -.22433328E+03 E0= -.22433328E+03  d E =-.224333E+03  mag=     0.0007
       N       E                     dE             d eps       ncg     rms          rms(c)
DAV:   1    -0.215086252298E+03    0.92470E+01   -0.14566E+03 46592   0.210E+02    0.106E+01
DAV:   2    -0.227476212629E+03   -0.12390E+02   -0.13856E+02 44488   0.459E+01    0.107E+01
DAV:   3    -0.226924570631E+03    0.55164E+00   -0.10379E+01 60560   0.223E+01    0.758E+00
DAV:   4    -0.226129486683E+03    0.79508E+00   -0.12558E+00 61176   0.708E+00    0.397E+00
DAV:   5    -0.225947374346E+03    0.18211E+00   -0.13029E+00 60608   0.596E+00    0.219E+00
DAV:   6    -0.225909625423E+03    0.37749E-01   -0.26542E-01 61296   0.397E+00    0.104E+00
DAV:   7    -0.225906869834E+03    0.27556E-02   -0.57827E-02 59136   0.157E+00    0.513E-01
DAV:   8    -0.225907262646E+03   -0.39281E-03   -0.11392E-02 61280   0.749E-01    0.348E-01
DAV:   9    -0.225907298455E+03   -0.35809E-04   -0.54971E-03 61232   0.612E-01    0.215E-01
DAV:  10    -0.225907305293E+03   -0.68374E-05   -0.17346E-03 60832   0.281E-01    0.874E-02
DAV:  11    -0.225907313073E+03   -0.77800E-05   -0.82552E-04 59232   0.138E-01    0.370E-02
DAV:  12    -0.225907325357E+03   -0.12284E-04   -0.16748E-04 52360   0.571E-02    0.201E-02
DAV:  13    -0.225907332238E+03   -0.68812E-05   -0.61344E-05 57648   0.310E-02    0.126E-02
DAV:  14    -0.225907331172E+03    0.10660E-05   -0.95342E-06 51136   0.160E-02    0.640E-03
DAV:  15    -0.225907330760E+03    0.41228E-06   -0.58131E-06 46728   0.971E-03
   2 F= -.22590733E+03 E0= -.22590733E+03  d E =-.157405E+01  mag=     0.0000
       N       E                     dE             d eps       ncg     rms          rms(c)
DAV:   1    -0.225762951582E+03    0.14438E+00   -0.20751E+02 46592   0.892E+01    0.512E+00
DAV:   2    -0.228101942369E+03   -0.23390E+01   -0.25242E+01 50864   0.230E+01    0.658E+00
DAV:   3    -0.227460466233E+03    0.64148E+00   -0.12159E+00 60448   0.924E+00    0.244E+00
DAV:   4    -0.227371933152E+03    0.88533E-01   -0.39213E-01 62576   0.242E+00    0.149E+00
DAV:   5    -0.227354557830E+03    0.17375E-01   -0.20863E-01 62800   0.260E+00    0.106E+00
DAV:   6    -0.227348480512E+03    0.60773E-02   -0.78398E-02 59472   0.181E+00    0.819E-01
DAV:   7    -0.227343201837E+03    0.52787E-02   -0.47332E-02 60928   0.107E+00    0.294E-01
DAV:   8    -0.227342985395E+03    0.21644E-03   -0.77014E-03 58544   0.357E-01    0.132E-01
DAV:   9    -0.227343179129E+03   -0.19373E-03   -0.98882E-04 59200   0.152E-01    0.101E-01
DAV:  10    -0.227343192767E+03   -0.13638E-04   -0.64995E-04 61024   0.157E-01    0.674E-02
DAV:  11    -0.227343219446E+03   -0.26679E-04   -0.42999E-04 59312   0.964E-02    0.606E-02
DAV:  12    -0.227343188231E+03    0.31214E-04   -0.11289E-04 58560   0.370E-02    0.265E-02
DAV:  13    -0.227343186574E+03    0.16576E-05   -0.10162E-04 59712   0.300E-02    0.108E-02
DAV:  14    -0.227343186851E+03   -0.27768E-06   -0.79056E-06 46176   0.115E-02
   3 F= -.22734319E+03 E0= -.22734319E+03  d E =-.300990E+01  mag=     0.0000
       N       E                     dE             d eps       ncg     rms          rms(c)
DAV:   1    -0.226623715777E+03    0.71947E+00   -0.19843E+02 46592   0.889E+01    0.462E+00
DAV:   2    -0.228370066580E+03   -0.17464E+01   -0.19109E+01 49296   0.219E+01    0.569E+00
DAV:   3    -0.227957665069E+03    0.41240E+00   -0.98817E-01 60960   0.882E+00    0.176E+00
DAV:   4    -0.227906692987E+03    0.50972E-01   -0.27819E-01 62432   0.246E+00    0.709E-01
DAV:   5    -0.227904914229E+03    0.17788E-02   -0.46321E-02 60640   0.123E+00    0.442E-01
DAV:   6    -0.227906184939E+03   -0.12707E-02   -0.18103E-02 61328   0.917E-01    0.450E-01
DAV:   7    -0.227904706623E+03    0.14783E-02   -0.53485E-03 61056   0.515E-01    0.133E-01
DAV:   8    -0.227904952186E+03   -0.24556E-03   -0.12242E-03 56944   0.153E-01    0.629E-02
DAV:   9    -0.227904987043E+03   -0.34856E-04   -0.20088E-04 55664   0.746E-02    0.339E-02
DAV:  10    -0.227905003591E+03   -0.16549E-04   -0.11180E-04 60720   0.641E-02    0.268E-02
DAV:  11    -0.227904998684E+03    0.49074E-05   -0.25214E-05 59136   0.389E-02    0.949E-03
DAV:  12    -0.227904998868E+03   -0.18408E-06   -0.58176E-06 50208   0.121E-02
   4 F= -.22790500E+03 E0= -.22790500E+03  d E =-.561812E+00  mag=     0.0000
       N       E                     dE             d eps       ncg     rms          rms(c)
DAV:   1    -0.227903380056E+03    0.16186E-02   -0.53419E-01 47136   0.476E+00    0.249E-01
DAV:   2    -0.227908245720E+03   -0.48657E-02   -0.51940E-02 48528   0.111E+00    0.347E-01
DAV:   3    -0.227906932596E+03    0.13131E-02   -0.40322E-03 60480   0.560E-01    0.105E-01
DAV:   4    -0.227906773576E+03    0.15902E-03   -0.75573E-04 60624   0.139E-01    0.413E-02
DAV:   5    -0.227906779379E+03   -0.58029E-05   -0.17187E-04 59408   0.850E-02    0.464E-02
DAV:   6    -0.227906759530E+03    0.19849E-04   -0.63887E-05 60992   0.669E-02    0.147E-02
DAV:   7    -0.227906759131E+03    0.39870E-06   -0.10312E-05 58528   0.171E-02    0.592E-03
DAV:   8    -0.227906759503E+03   -0.37204E-06   -0.15776E-06 31488   0.605E-03
   5 F= -.22790676E+03 E0= -.22790676E+03  d E =-.563573E+00  mag=    -0.0000
       N       E                     dE             d eps       ncg     rms          rms(c)
DAV:   1    -0.227454111955E+03    0.45265E+00   -0.16569E+02 44800   0.761E+01    0.496E+00
DAV:   2    -0.228805355731E+03   -0.13512E+01   -0.14706E+01 52448   0.200E+01    0.636E+00
DAV:   3    -0.228268071754E+03    0.53728E+00   -0.12235E+00 59488   0.994E+00    0.188E+00
DAV:   4    -0.228214639314E+03    0.53432E-01   -0.30092E-01 59248   0.263E+00    0.881E-01
DAV:   5    -0.228212170346E+03    0.24690E-02   -0.75597E-02 61152   0.189E+00    0.786E-01
DAV:   6    -0.228206172520E+03    0.59978E-02   -0.21695E-02 59472   0.130E+00    0.317E-01
DAV:   7    -0.228205850732E+03    0.32179E-03   -0.51881E-03 61040   0.434E-01    0.120E-01
DAV:   8    -0.228206012427E+03   -0.16169E-03   -0.65063E-04 53312   0.134E-01    0.569E-02
DAV:   9    -0.228206074537E+03   -0.62111E-04   -0.29416E-04 61104   0.115E-01    0.558E-02
DAV:  10    -0.228206052912E+03    0.21626E-04   -0.77071E-05 61104   0.753E-02    0.206E-02
DAV:  11    -0.228206052924E+03   -0.12104E-07   -0.27962E-05 58592   0.258E-02    0.783E-03
DAV:  12    -0.228206054183E+03   -0.12593E-05   -0.83302E-06 48496   0.122E-02    0.454E-03
DAV:  13    -0.228206054313E+03   -0.13024E-06   -0.13041E-06 27152   0.571E-03
   6 F= -.22820605E+03 E0= -.22820605E+03  d E =-.299295E+00  mag=    -0.0000
       N       E                     dE             d eps       ncg     rms          rms(c)
DAV:   1    -0.228205544761E+03    0.50942E-03   -0.18353E-01 45776   0.258E+00    0.165E-01
DAV:   2    -0.228207074381E+03   -0.15296E-02   -0.16142E-02 54816   0.650E-01    0.227E-01
DAV:   3    -0.228206468696E+03    0.60568E-03   -0.15869E-03 59952   0.363E-01    0.665E-02
DAV:   4    -0.228206407223E+03    0.61473E-04   -0.32734E-04 60512   0.900E-02    0.268E-02
DAV:   5    -0.228206400543E+03    0.66796E-05   -0.52221E-05 61312   0.431E-02    0.182E-02
DAV:   6    -0.228206400267E+03    0.27609E-06   -0.22436E-05 60640   0.379E-02    0.141E-02
DAV:   7    -0.228206398423E+03    0.18445E-05   -0.39138E-06 44144   0.183E-02    0.384E-03
DAV:   8    -0.228206398680E+03   -0.25716E-06   -0.16108E-06 29088   0.578E-03
   7 F= -.22820640E+03 E0= -.22820640E+03  d E =-.299639E+00  mag=     0.0000
       N       E                     dE             d eps       ncg     rms          rms(c)
DAV:   1    -0.227521944161E+03    0.68445E+00   -0.12628E+02 44800   0.722E+01    0.253E+00
DAV:   2    -0.228513036623E+03   -0.99109E+00   -0.11212E+01 46528   0.141E+01    0.179E+00
DAV:   3    -0.228500584781E+03    0.12452E-01   -0.28284E-01 59712   0.351E+00    0.152E+00
DAV:   4    -0.228471269938E+03    0.29315E-01   -0.70421E-02 59472   0.215E+00    0.682E-01
DAV:   5    -0.228466908236E+03    0.43617E-02   -0.45178E-02 61408   0.988E-01    0.237E-01
DAV:   6    -0.228466726355E+03    0.18188E-03   -0.71135E-03 56624   0.437E-01    0.165E-01
DAV:   7    -0.228466824589E+03   -0.98234E-04   -0.26301E-03 60928   0.274E-01    0.133E-01
DAV:   8    -0.228466765720E+03    0.58869E-04   -0.54610E-04 61328   0.181E-01    0.681E-02
DAV:   9    -0.228466779677E+03   -0.13957E-04   -0.17600E-04 59104   0.710E-02    0.260E-02
DAV:  10    -0.228466793284E+03   -0.13607E-04   -0.95314E-05 59856   0.439E-02    0.193E-02
DAV:  11    -0.228466791444E+03    0.18399E-05   -0.16132E-05 60912   0.320E-02    0.111E-02
DAV:  12    -0.228466790876E+03    0.56716E-06   -0.68957E-06 53344   0.138E-02
   8 F= -.22846679E+03 E0= -.22846679E+03  d E =-.260392E+00  mag=     0.0000
       N       E                     dE             d eps       ncg     rms          rms(c)
DAV:   1    -0.228300082970E+03    0.16671E+00   -0.25009E+01 44800   0.325E+01    0.111E+00
DAV:   2    -0.228500861346E+03   -0.20078E+00   -0.22703E+00 46592   0.605E+00    0.728E-01
DAV:   3    -0.228497786395E+03    0.30750E-02   -0.48310E-02 60016   0.136E+00    0.595E-01
DAV:   4    -0.228494014869E+03    0.37715E-02   -0.12970E-02 59760   0.974E-01    0.347E-01
DAV:   5    -0.228492817912E+03    0.11970E-02   -0.78763E-03 64608   0.503E-01    0.108E-01
DAV:   6    -0.228492758051E+03    0.59860E-04   -0.12346E-03 53824   0.185E-01    0.708E-02
DAV:   7    -0.228492784108E+03   -0.26057E-04   -0.58536E-04 59616   0.120E-01    0.611E-02
DAV:   8    -0.228492770491E+03    0.13618E-04   -0.13294E-04 61040   0.826E-02    0.316E-02
DAV:   9    -0.228492770377E+03    0.11353E-06   -0.41915E-05 59136   0.339E-02    0.114E-02
DAV:  10    -0.228492772887E+03   -0.25096E-05   -0.20618E-05 54176   0.178E-02    0.717E-03
DAV:  11    -0.228492772775E+03    0.11201E-06   -0.20020E-06 34416   0.127E-02
   9 F= -.22849277E+03 E0= -.22849277E+03  d E =-.286374E+00  mag=     0.0000
       N       E                     dE             d eps       ncg     rms          rms(c)
DAV:   1    -0.228157442243E+03    0.33533E+00   -0.72986E+01 44848   0.537E+01    0.232E+00
DAV:   2    -0.228769448029E+03   -0.61201E+00   -0.64930E+00 46496   0.109E+01    0.256E+00
DAV:   3    -0.228705421542E+03    0.64026E-01   -0.28704E-01 58976   0.471E+00    0.116E+00
DAV:   4    -0.228688668919E+03    0.16753E-01   -0.52984E-02 60688   0.140E+00    0.469E-01
DAV:   5    -0.228687233902E+03    0.14350E-02   -0.18039E-02 51104   0.576E-01    0.214E-01
DAV:   6    -0.228687703849E+03   -0.46995E-03   -0.42179E-03 59216   0.475E-01    0.207E-01
DAV:   7    -0.228687402190E+03    0.30166E-03   -0.96854E-04 60992   0.276E-01    0.721E-02
DAV:   8    -0.228687418195E+03   -0.16005E-04   -0.18959E-04 58640   0.751E-02    0.360E-02
DAV:   9    -0.228687438520E+03   -0.20325E-04   -0.66674E-05 55104   0.410E-02    0.170E-02
DAV:  10    -0.228687439348E+03   -0.82770E-06   -0.19992E-05 59312   0.372E-02    0.136E-02
DAV:  11    -0.228687438438E+03    0.91020E-06   -0.66170E-06 57968   0.174E-02
  10 F= -.22868744E+03 E0= -.22868744E+03  d E =-.194666E+00  mag=     0.0000
       N       E                     dE             d eps       ncg     rms          rms(c)
DAV:   1    -0.227725622456E+03    0.96182E+00   -0.14743E+02 44864   0.758E+01    0.336E+00
DAV:   2    -0.228937951911E+03   -0.12123E+01   -0.12998E+01 45808   0.157E+01    0.361E+00
DAV:   3    -0.228814415287E+03    0.12354E+00   -0.61569E-01 60928   0.678E+00    0.173E+00
DAV:   4    -0.228775647771E+03    0.38768E-01   -0.11637E-01 61312   0.206E+00    0.718E-01
DAV:   5    -0.228773027789E+03    0.26200E-02   -0.49216E-02 57296   0.113E+00    0.515E-01
DAV:   6    -0.228771665896E+03    0.13619E-02   -0.13532E-02 59776   0.960E-01    0.279E-01
DAV:   7    -0.228771251102E+03    0.41479E-03   -0.23241E-03 60896   0.386E-01    0.110E-01
DAV:   8    -0.228771314206E+03   -0.63104E-04   -0.53969E-04 60240   0.146E-01    0.740E-02
DAV:   9    -0.228771344467E+03   -0.30261E-04   -0.27114E-04 60208   0.133E-01    0.528E-02
DAV:  10    -0.228771336622E+03    0.78452E-05   -0.82754E-05 60816   0.687E-02    0.132E-02
DAV:  11    -0.228771339536E+03   -0.29139E-05   -0.18894E-05 57616   0.223E-02    0.678E-03
DAV:  12    -0.228771340055E+03   -0.51971E-06   -0.27611E-06 38640   0.859E-03
  11 F= -.22877134E+03 E0= -.22877134E+03  d E =-.278567E+00  mag=    -0.0000
       N       E                     dE             d eps       ncg     rms          rms(c)
DAV:   1    -0.228686366713E+03    0.84973E-01   -0.11764E+01 44800   0.219E+01    0.880E-01
DAV:   2    -0.228788055193E+03   -0.10169E+00   -0.11235E+00 46064   0.435E+00    0.833E-01
DAV:   3    -0.228782617967E+03    0.54372E-02   -0.41404E-02 59344   0.165E+00    0.515E-01
DAV:   4    -0.228779162215E+03    0.34558E-02   -0.81548E-03 62400   0.607E-01    0.215E-01
DAV:   5    -0.228778800037E+03    0.36218E-03   -0.43407E-03 54384   0.301E-01    0.114E-01
DAV:   6    -0.228778769931E+03    0.30106E-04   -0.92493E-04 59264   0.234E-01    0.802E-02
DAV:   7    -0.228778731798E+03    0.38134E-04   -0.24367E-04 61280   0.112E-01    0.313E-02
DAV:   8    -0.228778731607E+03    0.19050E-06   -0.51615E-05 54192   0.371E-02    0.175E-02
DAV:   9    -0.228778736443E+03   -0.48362E-05   -0.20139E-05 59392   0.229E-02    0.106E-02
DAV:  10    -0.228778735979E+03    0.46411E-06   -0.51169E-06 50592   0.194E-02
  12 F= -.22877874E+03 E0= -.22877874E+03  d E =-.285963E+00  mag=     0.0000
       N       E                     dE             d eps       ncg     rms          rms(c)
DAV:   1    -0.228684691841E+03    0.94045E-01   -0.31877E+01 44896   0.347E+01    0.116E+00
DAV:   2    -0.228946273914E+03   -0.26158E+00   -0.28347E+00 46496   0.664E+00    0.105E+00
DAV:   3    -0.228940252078E+03    0.60218E-02   -0.79809E-02 60992   0.212E+00    0.697E-01
DAV:   4    -0.228933766985E+03    0.64851E-02   -0.15033E-02 61040   0.902E-01    0.341E-01
DAV:   5    -0.228932812334E+03    0.95465E-03   -0.12418E-02 52032   0.497E-01    0.145E-01
DAV:   6    -0.228932811068E+03    0.12662E-05   -0.24789E-03 59168   0.301E-01    0.111E-01
DAV:   7    -0.228932708275E+03    0.10279E-03   -0.75934E-04 60928   0.156E-01    0.542E-02
DAV:   8    -0.228932704907E+03    0.33684E-05   -0.14727E-04 55904   0.545E-02    0.317E-02
DAV:   9    -0.228932709718E+03   -0.48108E-05   -0.45857E-05 55648   0.316E-02    0.936E-03
DAV:  10    -0.228932711780E+03   -0.20620E-05   -0.11538E-05 48880   0.144E-02    0.480E-03
DAV:  11    -0.228932711676E+03    0.10384E-06   -0.14469E-06 27328   0.617E-03
  13 F= -.22893271E+03 E0= -.22893271E+03  d E =-.153976E+00  mag=     0.0000
       N       E                     dE             d eps       ncg     rms          rms(c)
DAV:   1    -0.228812019737E+03    0.12069E+00   -0.20631E+01 44848   0.280E+01    0.943E-01
DAV:   2    -0.228981426175E+03   -0.16941E+00   -0.18564E+00 46528   0.532E+00    0.807E-01
DAV:   3    -0.228978724827E+03    0.27013E-02   -0.53836E-02 60704   0.172E+00    0.583E-01
DAV:   4    -0.228974344570E+03    0.43803E-02   -0.10215E-02 62624   0.767E-01    0.285E-01
DAV:   5    -0.228973628409E+03    0.71616E-03   -0.89578E-03 51120   0.404E-01    0.104E-01
DAV:   6    -0.228973595730E+03    0.32678E-04   -0.15886E-03 57664   0.208E-01    0.771E-02
DAV:   7    -0.228973580779E+03    0.14952E-04   -0.59865E-04 60864   0.129E-01    0.504E-02
DAV:   8    -0.228973571325E+03    0.94540E-05   -0.10071E-04 60944   0.609E-02    0.283E-02
DAV:   9    -0.228973572798E+03   -0.14734E-05   -0.33738E-05 59136   0.302E-02    0.113E-02
DAV:  10    -0.228973575054E+03   -0.22554E-05   -0.12772E-05 59904   0.219E-02    0.974E-03
DAV:  11    -0.228973574154E+03    0.89932E-06   -0.20216E-06 34464   0.140E-02
  14 F= -.22897357E+03 E0= -.22897357E+03  d E =-.194838E+00  mag=     0.0000
       N       E                     dE             d eps       ncg     rms          rms(c)
DAV:   1    -0.229023766301E+03   -0.50191E-01   -0.11152E+01 44800   0.180E+01    0.864E-01
DAV:   2    -0.229067190464E+03   -0.43424E-01   -0.57107E-01 46864   0.354E+00    0.851E-01
DAV:   3    -0.229059757177E+03    0.74333E-02   -0.33240E-02 60352   0.156E+00    0.476E-01
DAV:   4    -0.229055489925E+03    0.42673E-02   -0.12360E-02 61056   0.675E-01    0.163E-01
DAV:   5    -0.229055215621E+03    0.27430E-03   -0.33620E-03 53456   0.242E-01    0.755E-02
DAV:   6    -0.229055256251E+03   -0.40629E-04   -0.70324E-04 60144   0.176E-01    0.778E-02
DAV:   7    -0.229055199778E+03    0.56472E-04   -0.18953E-04 61008   0.117E-01    0.272E-02
DAV:   8    -0.229055199715E+03    0.63545E-07   -0.33314E-05 59040   0.318E-02    0.133E-02
DAV:   9    -0.229055201336E+03   -0.16216E-05   -0.10266E-05 48928   0.160E-02    0.566E-03
DAV:  10    -0.229055202027E+03   -0.69090E-06   -0.39258E-06 42560   0.858E-03
  15 F= -.22905520E+03 E0= -.22905520E+03  d E =-.816279E-01  mag=     0.0000
       N       E                     dE             d eps       ncg     rms          rms(c)
DAV:   1    -0.229054950935E+03    0.25040E-03   -0.74917E+00 44800   0.148E+01    0.709E-01
DAV:   2    -0.229084137780E+03   -0.29187E-01   -0.38410E-01 46992   0.290E+00    0.696E-01
DAV:   3    -0.229079153241E+03    0.49845E-02   -0.22541E-02 60352   0.129E+00    0.390E-01
DAV:   4    -0.229076306565E+03    0.28467E-02   -0.82118E-03 60992   0.552E-01    0.134E-01
DAV:   5    -0.229076130874E+03    0.17569E-03   -0.22907E-03 55776   0.207E-01    0.686E-02
DAV:   6    -0.229076153612E+03   -0.22738E-04   -0.50569E-04 60512   0.161E-01    0.677E-02
DAV:   7    -0.229076109083E+03    0.44529E-04   -0.13763E-04 60976   0.978E-02    0.217E-02
DAV:   8    -0.229076109785E+03   -0.70208E-06   -0.23270E-05 56880   0.246E-02    0.106E-02
DAV:   9    -0.229076110990E+03   -0.12049E-05   -0.68016E-06 46880   0.129E-02    0.456E-03
DAV:  10    -0.229076111425E+03   -0.43541E-06   -0.19797E-06 30672   0.799E-03
  16 F= -.22907611E+03 E0= -.22907611E+03  d E =-.102537E+00  mag=     0.0000
       N       E                     dE             d eps       ncg     rms          rms(c)
DAV:   1    -0.229048581625E+03    0.27529E-01   -0.10773E+01 45216   0.208E+01    0.858E-01
DAV:   2    -0.229126568724E+03   -0.77987E-01   -0.89151E-01 46608   0.410E+00    0.845E-01
DAV:   3    -0.229120690297E+03    0.58784E-02   -0.42045E-02 59936   0.173E+00    0.493E-01
DAV:   4    -0.229117154490E+03    0.35358E-02   -0.84272E-03 60976   0.574E-01    0.200E-01
DAV:   5    -0.229116647704E+03    0.50679E-03   -0.35636E-03 54080   0.261E-01    0.748E-02
DAV:   6    -0.229116714061E+03   -0.66357E-04   -0.73845E-04 59392   0.169E-01    0.727E-02
DAV:   7    -0.229116674208E+03    0.39852E-04   -0.18916E-04 61040   0.105E-01    0.317E-02
DAV:   8    -0.229116675558E+03   -0.13497E-05   -0.38373E-05 60368   0.350E-02    0.162E-02
DAV:   9    -0.229116678461E+03   -0.29033E-05   -0.11550E-05 54688   0.195E-02    0.847E-03
DAV:  10    -0.229116679104E+03   -0.64213E-06   -0.52771E-06 50352   0.188E-02
  17 F= -.22911668E+03 E0= -.22911668E+03  d E =-.405677E-01  mag=    -0.0000
       N       E                     dE             d eps       ncg     rms          rms(c)
DAV:   1    -0.229115313809E+03    0.13647E-02   -0.41248E-01 46848   0.408E+00    0.166E-01
DAV:   2    -0.229118195044E+03   -0.28812E-02   -0.33126E-02 46592   0.791E-01    0.160E-01
DAV:   3    -0.229117983748E+03    0.21130E-03   -0.15326E-03 59488   0.330E-01    0.962E-02
DAV:   4    -0.229117850184E+03    0.13356E-03   -0.33233E-04 60960   0.114E-01    0.383E-02
DAV:   5    -0.229117832462E+03    0.17721E-04   -0.13224E-04 52752   0.496E-02    0.137E-02
DAV:   6    -0.229117834827E+03   -0.23647E-05   -0.25570E-05 59344   0.287E-02    0.123E-02
DAV:   7    -0.229117834007E+03    0.81988E-06   -0.61321E-06 52912   0.187E-02
  18 F= -.22911783E+03 E0= -.22911783E+03  d E =-.417226E-01  mag=     0.0000
       N       E                     dE             d eps       ncg     rms          rms(c)
DAV:   1    -0.229071162307E+03    0.46673E-01   -0.93310E+00 46592   0.195E+01    0.818E-01
DAV:   2    -0.229149904416E+03   -0.78742E-01   -0.90568E-01 46768   0.405E+00    0.751E-01
DAV:   3    -0.229145361497E+03    0.45429E-02   -0.27738E-02 59472   0.135E+00    0.447E-01
DAV:   4    -0.229142010356E+03    0.33511E-02   -0.71204E-03 60112   0.569E-01    0.187E-01
DAV:   5    -0.229141604477E+03    0.40588E-03   -0.32061E-03 60544   0.291E-01    0.949E-02
DAV:   6    -0.229141582034E+03    0.22443E-04   -0.71504E-04 59296   0.211E-01    0.676E-02
DAV:   7    -0.229141543232E+03    0.38802E-04   -0.14539E-04 60928   0.892E-02    0.274E-02
DAV:   8    -0.229141545461E+03   -0.22289E-05   -0.32207E-05 58000   0.287E-02    0.126E-02
DAV:   9    -0.229141547432E+03   -0.19706E-05   -0.99833E-06 55680   0.211E-02    0.856E-03
DAV:  10    -0.229141547244E+03    0.18807E-06   -0.43795E-06 47264   0.167E-02
  19 F= -.22914155E+03 E0= -.22914155E+03  d E =-.237132E-01  mag=    -0.0000
       N       E                     dE             d eps       ncg     rms          rms(c)
DAV:   1    -0.229141403715E+03    0.14372E-03   -0.28125E-02 48160   0.107E+00    0.440E-02
DAV:   2    -0.229141635743E+03   -0.23203E-03   -0.26773E-03 46672   0.214E-01    0.386E-02
DAV:   3    -0.229141624194E+03    0.11548E-04   -0.79905E-05 59232   0.717E-02    0.247E-02
DAV:   4    -0.229141614508E+03    0.96862E-05   -0.22014E-05 61504   0.326E-02    0.102E-02
DAV:   5    -0.229141613370E+03    0.11383E-05   -0.95338E-06 51248   0.156E-02    0.479E-03
DAV:   6    -0.229141613300E+03    0.70337E-07   -0.14958E-06 37104   0.109E-02
  20 F= -.22914161E+03 E0= -.22914161E+03  d E =-.237793E-01  mag=    -0.0000
       N       E                     dE             d eps       ncg     rms          rms(c)
DAV:   1    -0.229129527554E+03    0.12086E-01   -0.63870E+00 44800   0.151E+01    0.862E-01
DAV:   2    -0.229170401911E+03   -0.40874E-01   -0.51937E-01 46944   0.326E+00    0.795E-01
DAV:   3    -0.229163363543E+03    0.70384E-02   -0.27549E-02 56048   0.150E+00    0.443E-01
DAV:   4    -0.229159896183E+03    0.34674E-02   -0.11409E-02 60832   0.656E-01    0.141E-01
DAV:   5    -0.229159792840E+03    0.10334E-03   -0.22590E-03 61472   0.276E-01    0.110E-01
DAV:   6    -0.229159709188E+03    0.83652E-04   -0.65903E-04 59520   0.210E-01    0.621E-02
DAV:   7    -0.229159678969E+03    0.30219E-04   -0.12873E-04 61008   0.861E-02    0.224E-02
DAV:   8    -0.229159682244E+03   -0.32757E-05   -0.25703E-05 52640   0.259E-02    0.120E-02
DAV:   9    -0.229159684316E+03   -0.20719E-05   -0.98980E-06 59344   0.240E-02    0.113E-02
DAV:  10    -0.229159683393E+03    0.92358E-06   -0.28203E-06 38848   0.167E-02
  21 F= -.22915968E+03 E0= -.22915968E+03  d E =-.180701E-01  mag=     0.0000
       N       E                     dE             d eps       ncg     rms          rms(c)
DAV:   1    -0.229157809026E+03    0.18753E-02   -0.65039E-01 44832   0.484E+00    0.276E-01
DAV:   2    -0.229161970747E+03   -0.41617E-02   -0.52730E-02 47024   0.105E+00    0.257E-01
DAV:   3    -0.229161240761E+03    0.72999E-03   -0.28730E-03 55936   0.485E-01    0.141E-01
DAV:   4    -0.229160889672E+03    0.35109E-03   -0.11380E-03 60832   0.206E-01    0.451E-02
DAV:   5    -0.229160880809E+03    0.88629E-05   -0.23254E-04 61600   0.895E-02    0.362E-02
DAV:   6    -0.229160871252E+03    0.95565E-05   -0.68297E-05 59584   0.679E-02    0.195E-02
DAV:   7    -0.229160868570E+03    0.26822E-05   -0.12965E-05 60752   0.269E-02    0.718E-03
DAV:   8    -0.229160868893E+03   -0.32266E-06   -0.21686E-06 30688   0.833E-03
  22 F= -.22916087E+03 E0= -.22916087E+03  d E =-.192556E-01  mag=    -0.0000
       N       E                     dE             d eps       ncg     rms          rms(c)
DAV:   1    -0.229124926249E+03    0.35942E-01   -0.58611E+00 44800   0.173E+01    0.857E-01
DAV:   2    -0.229182500739E+03   -0.57574E-01   -0.66088E-01 46288   0.367E+00    0.906E-01
DAV:   3    -0.229174078485E+03    0.84223E-02   -0.39101E-02 58992   0.176E+00    0.420E-01
DAV:   4    -0.229171934710E+03    0.21438E-02   -0.81820E-03 61440   0.565E-01    0.136E-01
DAV:   5    -0.229171835189E+03    0.99521E-04   -0.13844E-03 58496   0.183E-01    0.748E-02
DAV:   6    -0.229171869702E+03   -0.34513E-04   -0.40446E-04 60976   0.166E-01    0.711E-02
DAV:   7    -0.229171833269E+03    0.36432E-04   -0.13934E-04 60976   0.102E-01    0.206E-02
DAV:   8    -0.229171836464E+03   -0.31944E-05   -0.21748E-05 59168   0.283E-02    0.124E-02
DAV:   9    -0.229171837500E+03   -0.10357E-05   -0.93134E-06 58544   0.241E-02    0.974E-03
DAV:  10    -0.229171836835E+03    0.66481E-06   -0.21150E-06 37728   0.145E-02
  23 F= -.22917184E+03 E0= -.22917184E+03  d E =-.109679E-01  mag=     0.0000
       N       E                     dE             d eps       ncg     rms          rms(c)
DAV:   1    -0.229171794466E+03    0.43033E-04   -0.76360E-03 46848   0.624E-01    0.308E-02
DAV:   2    -0.229171868215E+03   -0.73749E-04   -0.84977E-04 46640   0.132E-01    0.335E-02
DAV:   3    -0.229171857156E+03    0.11059E-04   -0.51907E-05 59200   0.644E-02    0.151E-02
DAV:   4    -0.229171854485E+03    0.26714E-05   -0.10749E-05 60576   0.201E-02    0.509E-03
DAV:   5    -0.229171854471E+03    0.13963E-07   -0.15732E-06 29552   0.702E-03
  24 F= -.22917185E+03 E0= -.22917185E+03  d E =-.109856E-01  mag=    -0.0000
       N       E                     dE             d eps       ncg     rms          rms(c)
DAV:   1    -0.229167041126E+03    0.48134E-02   -0.23393E+00 44800   0.909E+00    0.373E-01
DAV:   2    -0.229179846182E+03   -0.12805E-01   -0.15814E-01 46672   0.176E+00    0.284E-01
DAV:   3    -0.229179105992E+03    0.74019E-03   -0.47022E-03 59440   0.549E-01    0.219E-01
DAV:   4    -0.229178276957E+03    0.82903E-03   -0.19459E-03 61488   0.311E-01    0.830E-02
DAV:   5    -0.229178196563E+03    0.80395E-04   -0.73892E-04 57024   0.128E-01    0.300E-02
DAV:   6    -0.229178197308E+03   -0.74504E-06   -0.11701E-04 59440   0.631E-02    0.260E-02
DAV:   7    -0.229178194450E+03    0.28572E-05   -0.38706E-05 60944   0.418E-02    0.153E-02
DAV:   8    -0.229178193642E+03    0.80839E-06   -0.78359E-06 55936   0.189E-02
  25 F= -.22917819E+03 E0= -.22917819E+03  d E =-.633917E-02  mag=    -0.0000
       N       E                     dE             d eps       ncg     rms          rms(c)
DAV:   1    -0.229177321883E+03    0.87257E-03   -0.27660E-01 44832   0.313E+00    0.128E-01
DAV:   2    -0.229178833514E+03   -0.15116E-02   -0.18634E-02 46736   0.606E-01    0.989E-02
DAV:   3    -0.229178746180E+03    0.87333E-04   -0.57058E-04 59440   0.192E-01    0.752E-02
DAV:   4    -0.229178647586E+03    0.98595E-04   -0.22822E-04 61424   0.106E-01    0.284E-02
DAV:   5    -0.229178638874E+03    0.87116E-05   -0.88588E-05 56240   0.437E-02    0.103E-02
DAV:   6    -0.229178639137E+03   -0.26333E-06   -0.14274E-05 59152   0.216E-02    0.888E-03
DAV:   7    -0.229178638751E+03    0.38584E-06   -0.35209E-06 41872   0.143E-02
  26 F= -.22917864E+03 E0= -.22917864E+03  d E =-.678428E-02  mag=     0.0000
       N       E                     dE             d eps       ncg     rms          rms(c)
DAV:   1    -0.229163835328E+03    0.14804E-01   -0.28812E+00 44800   0.112E+01    0.383E-01
DAV:   2    -0.229184886990E+03   -0.21052E-01   -0.23912E-01 46336   0.203E+00    0.262E-01
DAV:   3    -0.229184448770E+03    0.43822E-03   -0.53356E-03 60288   0.567E-01    0.218E-01
DAV:   4    -0.229183798330E+03    0.65044E-03   -0.15591E-03 61504   0.340E-01    0.847E-02
DAV:   5    -0.229183737445E+03    0.60885E-04   -0.68345E-04 58304   0.121E-01    0.339E-02
DAV:   6    -0.229183737538E+03   -0.92268E-07   -0.10629E-04 59136   0.664E-02    0.265E-02
DAV:   7    -0.229183734435E+03    0.31031E-05   -0.38304E-05 60928   0.420E-02    0.136E-02
DAV:   8    -0.229183735072E+03   -0.63732E-06   -0.10603E-05 53760   0.170E-02    0.688E-03
DAV:   9    -0.229183735040E+03    0.31918E-07   -0.20567E-06 28288   0.805E-03
  27 F= -.22918374E+03 E0= -.22918374E+03  d E =-.509629E-02  mag=     0.0000
       N       E                     dE             d eps       ncg     rms          rms(c)
DAV:   1    -0.229182056819E+03    0.16783E-02   -0.29361E-01 44800   0.356E+00    0.123E-01
DAV:   2    -0.229184196052E+03   -0.21392E-02   -0.24292E-02 46528   0.644E-01    0.851E-02
DAV:   3    -0.229184151493E+03    0.44559E-04   -0.56217E-04 60128   0.186E-01    0.706E-02
DAV:   4    -0.229184082937E+03    0.68556E-04   -0.15796E-04 61312   0.106E-01    0.265E-02
DAV:   5    -0.229184077477E+03    0.54597E-05   -0.69285E-05 56400   0.374E-02    0.107E-02
DAV:   6    -0.229184077653E+03   -0.17594E-06   -0.11090E-05 56944   0.212E-02    0.849E-03
DAV:   7    -0.229184077168E+03    0.48472E-06   -0.22705E-06 35344   0.132E-02
  28 F= -.22918408E+03 E0= -.22918408E+03  d E =-.543842E-02  mag=     0.0000
       N       E                     dE             d eps       ncg     rms          rms(c)
DAV:   1    -0.229178704988E+03    0.53727E-02   -0.13790E+00 44800   0.652E+00    0.246E-01
DAV:   2    -0.229187287074E+03   -0.85821E-02   -0.93878E-02 46528   0.128E+00    0.236E-01
DAV:   3    -0.229186809685E+03    0.47739E-03   -0.31101E-03 59072   0.448E-01    0.136E-01
DAV:   4    -0.229186505862E+03    0.30382E-03   -0.70460E-04 64336   0.168E-01    0.560E-02
DAV:   5    -0.229186470621E+03    0.35242E-04   -0.32357E-04 52288   0.788E-02    0.205E-02
DAV:   6    -0.229186477693E+03   -0.70725E-05   -0.67549E-05 59456   0.503E-02    0.205E-02
DAV:   7    -0.229186475159E+03    0.25343E-05   -0.15089E-05 61088   0.298E-02    0.979E-03
DAV:   8    -0.229186475051E+03    0.10767E-06   -0.17486E-06 32288   0.974E-03
  29 F= -.22918648E+03 E0= -.22918648E+03  d E =-.239788E-02  mag=     0.0000
       N       E                     dE             d eps       ncg     rms          rms(c)
DAV:   1    -0.229186430477E+03    0.44682E-04   -0.11937E-02 45728   0.606E-01    0.229E-02
DAV:   2    -0.229186504650E+03   -0.74174E-04   -0.81567E-04 46672   0.121E-01    0.227E-02
DAV:   3    -0.229186500384E+03    0.42662E-05   -0.26942E-05 58864   0.422E-02    0.124E-02
DAV:   4    -0.229186497835E+03    0.25491E-05   -0.56893E-06 51168   0.152E-02    0.546E-03
DAV:   5    -0.229186497621E+03    0.21389E-06   -0.27509E-06 33696   0.818E-03
  30 F= -.22918650E+03 E0= -.22918650E+03  d E =-.242045E-02  mag=     0.0000
       N       E                     dE             d eps       ncg     rms          rms(c)
DAV:   1    -0.229183159587E+03    0.33382E-02   -0.10389E+00 44800   0.562E+00    0.182E-01
DAV:   2    -0.229188480227E+03   -0.53206E-02   -0.57932E-02 46880   0.102E+00    0.171E-01
DAV:   3    -0.229188246109E+03    0.23412E-03   -0.17501E-03 58128   0.333E-01    0.994E-02
DAV:   4    -0.229188078106E+03    0.16800E-03   -0.40200E-04 64608   0.132E-01    0.470E-02
DAV:   5    -0.229188056723E+03    0.21383E-04   -0.21500E-04 58112   0.731E-02    0.244E-02
DAV:   6    -0.229188058096E+03   -0.13735E-05   -0.59068E-05 59168   0.543E-02    0.178E-02
DAV:   7    -0.229188056077E+03    0.20199E-05   -0.94970E-06 58448   0.222E-02    0.756E-03
DAV:   8    -0.229188056411E+03   -0.33461E-06   -0.20572E-06 34624   0.806E-03
  31 F= -.22918806E+03 E0= -.22918806E+03  d E =-.155879E-02  mag=    -0.0000
       N       E                     dE             d eps       ncg     rms          rms(c)
DAV:   1    -0.229188054870E+03    0.12062E-05   -0.60774E-04 48064   0.136E-01    0.592E-03
DAV:   2    -0.229188058531E+03   -0.36604E-05   -0.36221E-05 49120   0.285E-02    0.730E-03
DAV:   3    -0.229188058021E+03    0.51006E-06   -0.15635E-06 37728   0.130E-02
  32 F= -.22918806E+03 E0= -.22918806E+03  d E =-.156040E-02  mag=    -0.0000
       N       E                     dE             d eps       ncg     rms          rms(c)
DAV:   1    -0.229182472257E+03    0.55863E-02   -0.92118E-01 46592   0.607E+00    0.189E-01
DAV:   2    -0.229188978955E+03   -0.65067E-02   -0.72250E-02 46512   0.108E+00    0.123E-01
DAV:   3    -0.229188907708E+03    0.71248E-04   -0.14619E-03 60272   0.227E-01    0.945E-02
DAV:   4    -0.229188823977E+03    0.83731E-04   -0.38112E-04 60080   0.155E-01    0.580E-02
DAV:   5    -0.229188797070E+03    0.26907E-04   -0.23672E-04 62720   0.839E-02    0.202E-02
DAV:   6    -0.229188794776E+03    0.22942E-05   -0.40224E-05 59520   0.383E-02    0.148E-02
DAV:   7    -0.229188794685E+03    0.90840E-07   -0.17795E-05 61072   0.236E-02    0.962E-03
DAV:   8    -0.229188794292E+03    0.39351E-06   -0.20237E-06 35952   0.119E-02
  33 F= -.22918879E+03 E0= -.22918879E+03  d E =-.736271E-03  mag=    -0.0000
       N       E                     dE             d eps       ncg     rms          rms(c)
DAV:   1    -0.229188457895E+03    0.33679E-03   -0.65216E-02 46592   0.162E+00    0.501E-02
DAV:   2    -0.229188916328E+03   -0.45843E-03   -0.51022E-03 46416   0.285E-01    0.323E-02
DAV:   3    -0.229188911079E+03    0.52490E-05   -0.10177E-04 60160   0.594E-02    0.245E-02
DAV:   4    -0.229188905683E+03    0.53954E-05   -0.26351E-05 59840   0.414E-02    0.158E-02
DAV:   5    -0.229188903398E+03    0.22857E-05   -0.16856E-05 62800   0.228E-02    0.525E-03
DAV:   6    -0.229188903166E+03    0.23130E-06   -0.22913E-06 36112   0.963E-03
  34 F= -.22918890E+03 E0= -.22918890E+03  d E =-.845146E-03  mag=    -0.0000
       N       E                     dE             d eps       ncg     rms          rms(c)
DAV:   1    -0.229188630128E+03    0.27327E-03   -0.24658E-01 44800   0.268E+00    0.107E-01
DAV:   2    -0.229189609271E+03   -0.97914E-03   -0.11100E-02 48448   0.495E-01    0.122E-01
DAV:   3    -0.229189444017E+03    0.16525E-03   -0.62915E-04 58336   0.222E-01    0.556E-02
DAV:   4    -0.229189390447E+03    0.53569E-04   -0.18531E-04 59920   0.759E-02    0.214E-02
DAV:   5    -0.229189385354E+03    0.50934E-05   -0.57918E-05 53232   0.319E-02    0.965E-03
DAV:   6    -0.229189386481E+03   -0.11269E-05   -0.12612E-05 59248   0.216E-02    0.939E-03
DAV:   7    -0.229189385785E+03    0.69574E-06   -0.24061E-06 36336   0.151E-02
  35 F= -.22918939E+03 E0= -.22918939E+03  d E =-.482619E-03  mag=    -0.0000
       N       E                     dE             d eps       ncg     rms          rms(c)
DAV:   1    -0.229189385835E+03    0.64539E-06   -0.49291E-05 46896   0.382E-02    0.261E-03
DAV:   2    -0.229189386017E+03   -0.18155E-06   -0.20721E-06 34288   0.870E-03
  36 F= -.22918939E+03 E0= -.22918939E+03  d E =-.482851E-03  mag=    -0.0000
       N       E                     dE             d eps       ncg     rms          rms(c)
DAV:   1    -0.229189204382E+03    0.18145E-03   -0.78509E-02 44800   0.166E+00    0.541E-02
DAV:   2    -0.229189638435E+03   -0.43405E-03   -0.47894E-03 47120   0.297E-01    0.476E-02
DAV:   3    -0.229189622079E+03    0.16357E-04   -0.14373E-04 58848   0.928E-02    0.302E-02
DAV:   4    -0.229189607719E+03    0.14359E-04   -0.32345E-05 61312   0.400E-02    0.136E-02
DAV:   5    -0.229189606803E+03    0.91613E-06   -0.24242E-05 58480   0.218E-02    0.800E-03
DAV:   6    -0.229189606337E+03    0.46614E-06   -0.36260E-06 41600   0.151E-02
  37 F= -.22918961E+03 E0= -.22918961E+03  d E =-.220320E-03  mag=    -0.0000
       N       E                     dE             d eps       ncg     rms          rms(c)
DAV:   1    -0.229189597190E+03    0.96132E-05   -0.38750E-03 45184   0.369E-01    0.127E-02
DAV:   2    -0.229189619335E+03   -0.22145E-04   -0.24107E-04 47264   0.668E-02    0.107E-02
DAV:   3    -0.229189618724E+03    0.61049E-06   -0.71938E-06 53808   0.209E-02
  38 F= -.22918962E+03 E0= -.22918962E+03  d E =-.232707E-03  mag=     0.0000
       N       E                     dE             d eps       ncg     rms          rms(c)
DAV:   1    -0.229189495425E+03    0.12391E-03   -0.57297E-02 46592   0.144E+00    0.581E-02
DAV:   2    -0.229189809487E+03   -0.31406E-03   -0.36393E-03 46592   0.261E-01    0.512E-02
DAV:   3    -0.229189788454E+03    0.21034E-04   -0.16349E-04 57088   0.112E-01    0.336E-02
DAV:   4    -0.229189772403E+03    0.16051E-04   -0.43116E-05 60944   0.428E-02    0.108E-02
DAV:   5    -0.229189771413E+03    0.99007E-06   -0.12198E-05 50528   0.151E-02    0.493E-03
DAV:   6    -0.229189771553E+03   -0.14032E-06   -0.19275E-06 37664   0.112E-02
  39 F= -.22918977E+03 E0= -.22918977E+03  d E =-.152829E-03  mag=     0.0000
       N       E                     dE             d eps       ncg     rms          rms(c)
DAV:   1    -0.229189769388E+03    0.20249E-05   -0.88637E-04 48064   0.179E-01    0.755E-03
DAV:   2    -0.229189774097E+03   -0.47093E-05   -0.56700E-05 46576   0.328E-02    0.651E-03
DAV:   3    -0.229189773794E+03    0.30354E-06   -0.20230E-06 35600   0.140E-02
  40 F= -.22918977E+03 E0= -.22918977E+03  d E =-.155070E-03  mag=    -0.0000
       N       E                     dE             d eps       ncg     rms          rms(c)
DAV:   1    -0.229189655050E+03    0.11905E-03   -0.42129E-02 46592   0.118E+00    0.409E-02
DAV:   2    -0.229189863092E+03   -0.20804E-03   -0.24530E-03 46608   0.212E-01    0.267E-02
DAV:   3    -0.229189856893E+03    0.61990E-05   -0.72233E-05 60496   0.590E-02    0.241E-02
DAV:   4    -0.229189850439E+03    0.64544E-05   -0.23584E-05 59328   0.365E-02    0.105E-02
DAV:   5    -0.229189848887E+03    0.15517E-05   -0.10516E-05 49296   0.146E-02    0.361E-03
DAV:   6    -0.229189848988E+03   -0.10068E-06   -0.16719E-06 32160   0.722E-03
  41 F= -.22918985E+03 E0= -.22918985E+03  d E =-.751943E-04  mag=    -0.0000
       N       E                     dE             d eps       ncg     rms          rms(c)
DAV:   1    -0.229189847355E+03    0.15319E-05   -0.70751E-04 47200   0.154E-01    0.545E-03
DAV:   2    -0.229189850460E+03   -0.31051E-05   -0.40922E-05 46592   0.279E-02    0.414E-03
DAV:   3    -0.229189850324E+03    0.13600E-06   -0.11973E-06 32256   0.989E-03
  42 F= -.22918985E+03 E0= -.22918985E+03  d E =-.765307E-04  mag=     0.0000
       N       E                     dE             d eps       ncg     rms          rms(c)
DAV:   1    -0.229189695841E+03    0.15462E-03   -0.26529E-02 44800   0.111E+00    0.364E-02
DAV:   2    -0.229189913083E+03   -0.21724E-03   -0.23703E-03 46480   0.206E-01    0.351E-02
DAV:   3    -0.229189903079E+03    0.10004E-04   -0.76104E-05 58176   0.728E-02    0.191E-02
DAV:   4    -0.229189898815E+03    0.42643E-05   -0.14802E-05 59232   0.262E-02    0.811E-03
DAV:   5    -0.229189898484E+03    0.33069E-06   -0.54184E-06 48816   0.114E-02
  43 F= -.22918990E+03 E0= -.22918990E+03  d E =-.481597E-04  mag=     0.0000
       N       E                     dE             d eps       ncg     rms          rms(c)
DAV:   1    -0.229189897571E+03    0.12443E-05   -0.20583E-04 46128   0.981E-02    0.408E-03
DAV:   2    -0.229189899226E+03   -0.16558E-05   -0.18656E-05 47712   0.207E-02    0.558E-03
DAV:   3    -0.229189898905E+03    0.32114E-06   -0.85417E-07 31312   0.961E-03
  44 F= -.22918990E+03 E0= -.22918990E+03  d E =-.485808E-04  mag=     0.0000
       N       E                     dE             d eps       ncg     rms          rms(c)
DAV:   1    -0.229189817613E+03    0.81614E-04   -0.19308E-02 44800   0.836E-01    0.318E-02
DAV:   2    -0.229189940974E+03   -0.12336E-03   -0.14855E-03 46656   0.165E-01    0.236E-02
DAV:   3    -0.229189937613E+03    0.33610E-05   -0.44517E-05 60992   0.478E-02    0.187E-02
DAV:   4    -0.229189932317E+03    0.52957E-05   -0.12426E-05 60720   0.279E-02    0.837E-03
DAV:   5    -0.229189931358E+03    0.95888E-06   -0.76539E-06 50256   0.124E-02
  45 F= -.22918993E+03 E0= -.22918993E+03  d E =-.324530E-04  mag=    -0.0000
       N       E                     dE             d eps       ncg     rms          rms(c)
DAV:   1    -0.229189929605E+03    0.27121E-05   -0.35126E-04 45280   0.114E-01    0.462E-03
DAV:   2    -0.229189931891E+03   -0.22857E-05   -0.28081E-05 46608   0.240E-02    0.444E-03
DAV:   3    -0.229189931730E+03    0.16046E-06   -0.70900E-07 30640   0.842E-03
  46 F= -.22918993E+03 E0= -.22918993E+03  d E =-.328250E-04  mag=     0.0000
       N       E                     dE             d eps       ncg     rms          rms(c)
DAV:   1    -0.229189907660E+03    0.24231E-04   -0.59865E-03 44832   0.512E-01    0.164E-02
DAV:   2    -0.229189955550E+03   -0.47890E-04   -0.53341E-04 46544   0.963E-02    0.140E-02
DAV:   3    -0.229189954805E+03    0.74441E-06   -0.14233E-05 58704   0.284E-02    0.923E-03
DAV:   4    -0.229189953505E+03    0.13003E-05   -0.18446E-06 36880   0.124E-02    0.431E-03
DAV:   5    -0.229189953626E+03   -0.12114E-06   -0.44270E-06 38480   0.868E-03
  47 F= -.22918995E+03 E0= -.22918995E+03  d E =-.218960E-04  mag=     0.0000
